DATA (written by ASE) 

18 	 atoms 
2  atom types
0.0      5.0277820000000002  xlo xhi
0.0      8.7083739999999992  ylo yhi
0.0      5.5189180000000002  zlo zhi


Atoms 

     1   2      1.3140359646100002      2.2759770867699998                       0
     2   2      2.3997100707799999                       0      3.6792805063060001
     3   1     0.83125828140599989      3.6542949816199997      4.8051397783059997
     4   1     0.23519210028699988      1.8071487099189998             1.125859272
     5   1      2.7490831002870002      2.5470382900809998     0.71377822169400007
     6   1          3.345149281406     0.69989201837999993      2.5534157153880002
     7   1      1.4474406183070001      1.1072566915389999      4.3930587280000006
     8   2      3.8279269646100005      2.0782099132299998      1.8396374936940001
     9   1      3.9613316183070011      3.2469303084609997      2.9655022846120001
    10   1     0.23519210028699966      6.9012252900810003     0.71377822169400007
    11   1     0.83125828140599944      5.0540790183800004      2.5534157153880002
    12   2           3.82792696461      6.6301640867699998                       0
    13   2      4.9136010707800004      4.3541869999999996      3.6792805063060001
    14   2      1.3140359646099999       6.432396913229999      1.8396374936940001
    15   1      3.3451492814060009      8.0084819816199992      4.8051397783059997
    16   1      1.4474406183070005      7.6011173084609993      2.9655022846120001
    17   1      2.7490831002870006      6.1613357099189985             1.125859272
    18   1      3.9613316183069993      5.4614436915389994      4.3930587280000006
