DATA (written by ASE) 

8192 	 atoms 
1  atom types
0.0      46.028666880000003  xlo xhi
0.0      46.028666880000003  ylo yhi
0.0      46.028666880000003  zlo zhi


Atoms 

     1   1                       0                       0                       0
     2   1                       0                       0      2.8767916800000002
     3   1                       0                       0      5.7535833600000004
     4   1                       0                       0      8.6303750400000006
     5   1                       0                       0      11.507166720000001
     6   1                       0                       0      14.383958400000001
     7   1                       0                       0      17.260750080000001
     8   1                       0                       0      20.137541760000001
     9   1                       0                       0      23.014333440000001
    10   1                       0                       0      25.891125120000002
    11   1                       0                       0      28.767916800000002
    12   1                       0                       0      31.644708480000002
    13   1                       0                       0      34.521500160000002
    14   1                       0                       0      37.398291839999999
    15   1                       0                       0      40.275083520000003
    16   1                       0                       0      43.151875200000006
    17   1                       0      2.8767916800000002                       0
    18   1      2.8767916800000002                       0                       0
    19   1      1.4383958400000001      1.4383958400000001      1.4383958400000001
    20   1                       0      2.8767916800000002      2.8767916800000002
    21   1      2.8767916800000002                       0      2.8767916800000002
    22   1      1.4383958400000001      1.4383958400000001      4.3151875200000003
    23   1                       0      2.8767916800000002      5.7535833600000004
    24   1      2.8767916800000002                       0      5.7535833600000004
    25   1      1.4383958400000001      1.4383958400000001      7.1919792000000005
    26   1                       0      2.8767916800000002      8.6303750400000006
    27   1      2.8767916800000002                       0      8.6303750400000006
    28   1      1.4383958400000001      1.4383958400000001      10.068770880000001
    29   1                       0      2.8767916800000002      11.507166720000001
    30   1      2.8767916800000002                       0      11.507166720000001
    31   1      1.4383958400000001      1.4383958400000001      12.945562560000001
    32   1                       0      2.8767916800000002      14.383958400000001
    33   1      2.8767916800000002                       0      14.383958400000001
    34   1      1.4383958400000001      1.4383958400000001      15.822354240000001
    35   1                       0      2.8767916800000002      17.260750080000001
    36   1      2.8767916800000002                       0      17.260750080000001
    37   1      1.4383958400000001      1.4383958400000001      18.699145919999999
    38   1                       0      2.8767916800000002      20.137541760000001
    39   1      2.8767916800000002                       0      20.137541760000001
    40   1      1.4383958400000001      1.4383958400000001      21.575937600000003
    41   1                       0      2.8767916800000002      23.014333440000001
    42   1      2.8767916800000002                       0      23.014333440000001
    43   1      1.4383958400000001      1.4383958400000001             24.45272928
    44   1                       0      2.8767916800000002      25.891125120000002
    45   1      2.8767916800000002                       0      25.891125120000002
    46   1      1.4383958400000001      1.4383958400000001      27.329520960000004
    47   1                       0      2.8767916800000002      28.767916800000002
    48   1      2.8767916800000002                       0      28.767916800000002
    49   1      1.4383958400000001      1.4383958400000001             30.20631264
    50   1                       0      2.8767916800000002      31.644708480000002
    51   1      2.8767916800000002                       0      31.644708480000002
    52   1      1.4383958400000001      1.4383958400000001      33.083104320000004
    53   1                       0      2.8767916800000002      34.521500160000002
    54   1      2.8767916800000002                       0      34.521500160000002
    55   1      1.4383958400000001      1.4383958400000001      35.959896000000001
    56   1                       0      2.8767916800000002      37.398291839999999
    57   1      2.8767916800000002                       0      37.398291839999999
    58   1      1.4383958400000001      1.4383958400000001      38.836687680000004
    59   1                       0      2.8767916800000002      40.275083520000003
    60   1      2.8767916800000002                       0      40.275083520000003
    61   1      1.4383958400000001      1.4383958400000001      41.713479360000001
    62   1                       0      2.8767916800000002      43.151875200000006
    63   1      2.8767916800000002                       0      43.151875200000006
    64   1      1.4383958400000001      1.4383958400000001      44.590271040000005
    65   1                       0      5.7535833600000004                       0
    66   1      2.8767916800000002      2.8767916800000002                       0
    67   1      1.4383958400000001      4.3151875200000003      1.4383958400000001
    68   1                       0      5.7535833600000004      2.8767916800000002
    69   1      5.7535833600000004                       0                       0
    70   1      4.3151875200000003      1.4383958400000001      1.4383958400000001
    71   1      2.8767916800000002      2.8767916800000002      2.8767916800000002
    72   1      1.4383958400000001      4.3151875200000003      4.3151875200000003
    73   1                       0      5.7535833600000004      5.7535833600000004
    74   1      5.7535833600000004                       0      2.8767916800000002
    75   1      4.3151875200000003      1.4383958400000001      4.3151875200000003
    76   1      2.8767916800000002      2.8767916800000002      5.7535833600000004
    77   1      1.4383958400000001      4.3151875200000003      7.1919792000000005
    78   1                       0      5.7535833600000004      8.6303750400000006
    79   1      5.7535833600000004                       0      5.7535833600000004
    80   1      4.3151875200000003      1.4383958400000001      7.1919792000000005
    81   1      2.8767916800000002      2.8767916800000002      8.6303750400000006
    82   1      1.4383958400000001      4.3151875200000003      10.068770880000001
    83   1                       0      5.7535833600000004      11.507166720000001
    84   1      5.7535833600000004                       0      8.6303750400000006
    85   1      4.3151875200000003      1.4383958400000001      10.068770880000001
    86   1      2.8767916800000002      2.8767916800000002      11.507166720000001
    87   1      1.4383958400000001      4.3151875200000003      12.945562560000001
    88   1                       0      5.7535833600000004      14.383958400000001
    89   1      5.7535833600000004                       0      11.507166720000001
    90   1      4.3151875200000003      1.4383958400000001      12.945562560000001
    91   1      2.8767916800000002      2.8767916800000002      14.383958400000001
    92   1      1.4383958400000001      4.3151875200000003      15.822354240000001
    93   1                       0      5.7535833600000004      17.260750080000001
    94   1      5.7535833600000004                       0      14.383958400000001
    95   1      4.3151875200000003      1.4383958400000001      15.822354240000001
    96   1      2.8767916800000002      2.8767916800000002      17.260750080000001
    97   1      1.4383958400000001      4.3151875200000003      18.699145919999999
    98   1                       0      5.7535833600000004      20.137541760000001
    99   1      5.7535833600000004                       0      17.260750080000001
   100   1      4.3151875200000003      1.4383958400000001      18.699145919999999
   101   1      2.8767916800000002      2.8767916800000002      20.137541760000001
   102   1      1.4383958400000001      4.3151875200000003      21.575937600000003
   103   1                       0      5.7535833600000004      23.014333440000001
   104   1      5.7535833600000004                       0      20.137541760000001
   105   1      4.3151875200000003      1.4383958400000001      21.575937600000003
   106   1      2.8767916800000002      2.8767916800000002      23.014333440000001
   107   1      1.4383958400000001      4.3151875200000003             24.45272928
   108   1                       0      5.7535833600000004      25.891125120000002
   109   1      5.7535833600000004                       0      23.014333440000001
   110   1      4.3151875200000003      1.4383958400000001             24.45272928
   111   1      2.8767916800000002      2.8767916800000002      25.891125120000002
   112   1      1.4383958400000001      4.3151875200000003      27.329520960000004
   113   1                       0      5.7535833600000004      28.767916800000002
   114   1      5.7535833600000004                       0      25.891125120000002
   115   1      4.3151875200000003      1.4383958400000001      27.329520960000004
   116   1      2.8767916800000002      2.8767916800000002      28.767916800000002
   117   1      1.4383958400000001      4.3151875200000003             30.20631264
   118   1                       0      5.7535833600000004      31.644708480000002
   119   1      5.7535833600000004                       0      28.767916800000002
   120   1      4.3151875200000003      1.4383958400000001             30.20631264
   121   1      2.8767916800000002      2.8767916800000002      31.644708480000002
   122   1      1.4383958400000001      4.3151875200000003      33.083104320000004
   123   1                       0      5.7535833600000004      34.521500160000002
   124   1      5.7535833600000004                       0      31.644708480000002
   125   1      4.3151875200000003      1.4383958400000001      33.083104320000004
   126   1      2.8767916800000002      2.8767916800000002      34.521500160000002
   127   1      1.4383958400000001      4.3151875200000003      35.959896000000001
   128   1                       0      5.7535833600000004      37.398291839999999
   129   1      5.7535833600000004                       0      34.521500160000002
   130   1      4.3151875200000003      1.4383958400000001      35.959896000000001
   131   1      2.8767916800000002      2.8767916800000002      37.398291839999999
   132   1      1.4383958400000001      4.3151875200000003      38.836687680000004
   133   1                       0      5.7535833600000004      40.275083520000003
   134   1      5.7535833600000004                       0      37.398291839999999
   135   1      4.3151875200000003      1.4383958400000001      38.836687680000004
   136   1      2.8767916800000002      2.8767916800000002      40.275083520000003
   137   1      1.4383958400000001      4.3151875200000003      41.713479360000001
   138   1                       0      5.7535833600000004      43.151875200000006
   139   1      5.7535833600000004                       0      40.275083520000003
   140   1      4.3151875200000003      1.4383958400000001      41.713479360000001
   141   1      2.8767916800000002      2.8767916800000002      43.151875200000006
   142   1      1.4383958400000001      4.3151875200000003      44.590271040000005
   143   1      5.7535833600000004                       0      43.151875200000006
   144   1      4.3151875200000003      1.4383958400000001      44.590271040000005
   145   1                       0      8.6303750400000006                       0
   146   1      2.8767916800000002      5.7535833600000004                       0
   147   1      1.4383958400000001      7.1919792000000005      1.4383958400000001
   148   1                       0      8.6303750400000006      2.8767916800000002
   149   1      5.7535833600000004      2.8767916800000002                       0
   150   1      4.3151875200000003      4.3151875200000003      1.4383958400000001
   151   1      2.8767916800000002      5.7535833600000004      2.8767916800000002
   152   1      1.4383958400000001      7.1919792000000005      4.3151875200000003
   153   1                       0      8.6303750400000006      5.7535833600000004
   154   1      8.6303750400000006                       0                       0
   155   1      7.1919792000000005      1.4383958400000001      1.4383958400000001
   156   1      5.7535833600000004      2.8767916800000002      2.8767916800000002
   157   1      4.3151875200000003      4.3151875200000003      4.3151875200000003
   158   1      2.8767916800000002      5.7535833600000004      5.7535833600000004
   159   1      1.4383958400000001      7.1919792000000005      7.1919792000000005
   160   1                       0      8.6303750400000006      8.6303750400000006
   161   1      8.6303750400000006                       0      2.8767916800000002
   162   1      7.1919792000000005      1.4383958400000001      4.3151875200000003
   163   1      5.7535833600000004      2.8767916800000002      5.7535833600000004
   164   1      4.3151875200000003      4.3151875200000003      7.1919792000000005
   165   1      2.8767916800000002      5.7535833600000004      8.6303750400000006
   166   1      1.4383958400000001      7.1919792000000005      10.068770880000001
   167   1                       0      8.6303750400000006      11.507166720000001
   168   1      8.6303750400000006                       0      5.7535833600000004
   169   1      7.1919792000000005      1.4383958400000001      7.1919792000000005
   170   1      5.7535833600000004      2.8767916800000002      8.6303750400000006
   171   1      4.3151875200000003      4.3151875200000003      10.068770880000001
   172   1      2.8767916800000002      5.7535833600000004      11.507166720000001
   173   1      1.4383958400000001      7.1919792000000005      12.945562560000001
   174   1                       0      8.6303750400000006      14.383958400000001
   175   1      8.6303750400000006                       0      8.6303750400000006
   176   1      7.1919792000000005      1.4383958400000001      10.068770880000001
   177   1      5.7535833600000004      2.8767916800000002      11.507166720000001
   178   1      4.3151875200000003      4.3151875200000003      12.945562560000001
   179   1      2.8767916800000002      5.7535833600000004      14.383958400000001
   180   1      1.4383958400000001      7.1919792000000005      15.822354240000001
   181   1                       0      8.6303750400000006      17.260750080000001
   182   1      8.6303750400000006                       0      11.507166720000001
   183   1      7.1919792000000005      1.4383958400000001      12.945562560000001
   184   1      5.7535833600000004      2.8767916800000002      14.383958400000001
   185   1      4.3151875200000003      4.3151875200000003      15.822354240000001
   186   1      2.8767916800000002      5.7535833600000004      17.260750080000001
   187   1      1.4383958400000001      7.1919792000000005      18.699145919999999
   188   1                       0      8.6303750400000006      20.137541760000001
   189   1      8.6303750400000006                       0      14.383958400000001
   190   1      7.1919792000000005      1.4383958400000001      15.822354240000001
   191   1      5.7535833600000004      2.8767916800000002      17.260750080000001
   192   1      4.3151875200000003      4.3151875200000003      18.699145919999999
   193   1      2.8767916800000002      5.7535833600000004      20.137541760000001
   194   1      1.4383958400000001      7.1919792000000005      21.575937600000003
   195   1                       0      8.6303750400000006      23.014333440000001
   196   1      8.6303750400000006                       0      17.260750080000001
   197   1      7.1919792000000005      1.4383958400000001      18.699145919999999
   198   1      5.7535833600000004      2.8767916800000002      20.137541760000001
   199   1      4.3151875200000003      4.3151875200000003      21.575937600000003
   200   1      2.8767916800000002      5.7535833600000004      23.014333440000001
   201   1      1.4383958400000001      7.1919792000000005             24.45272928
   202   1                       0      8.6303750400000006      25.891125120000002
   203   1      8.6303750400000006                       0      20.137541760000001
   204   1      7.1919792000000005      1.4383958400000001      21.575937600000003
   205   1      5.7535833600000004      2.8767916800000002      23.014333440000001
   206   1      4.3151875200000003      4.3151875200000003             24.45272928
   207   1      2.8767916800000002      5.7535833600000004      25.891125120000002
   208   1      1.4383958400000001      7.1919792000000005      27.329520960000004
   209   1                       0      8.6303750400000006      28.767916800000002
   210   1      8.6303750400000006                       0      23.014333440000001
   211   1      7.1919792000000005      1.4383958400000001             24.45272928
   212   1      5.7535833600000004      2.8767916800000002      25.891125120000002
   213   1      4.3151875200000003      4.3151875200000003      27.329520960000004
   214   1      2.8767916800000002      5.7535833600000004      28.767916800000002
   215   1      1.4383958400000001      7.1919792000000005             30.20631264
   216   1                       0      8.6303750400000006      31.644708480000002
   217   1      8.6303750400000006                       0      25.891125120000002
   218   1      7.1919792000000005      1.4383958400000001      27.329520960000004
   219   1      5.7535833600000004      2.8767916800000002      28.767916800000002
   220   1      4.3151875200000003      4.3151875200000003             30.20631264
   221   1      2.8767916800000002      5.7535833600000004      31.644708480000002
   222   1      1.4383958400000001      7.1919792000000005      33.083104320000004
   223   1                       0      8.6303750400000006      34.521500160000002
   224   1      8.6303750400000006                       0      28.767916800000002
   225   1      7.1919792000000005      1.4383958400000001             30.20631264
   226   1      5.7535833600000004      2.8767916800000002      31.644708480000002
   227   1      4.3151875200000003      4.3151875200000003      33.083104320000004
   228   1      2.8767916800000002      5.7535833600000004      34.521500160000002
   229   1      1.4383958400000001      7.1919792000000005      35.959896000000001
   230   1                       0      8.6303750400000006      37.398291839999999
   231   1      8.6303750400000006                       0      31.644708480000002
   232   1      7.1919792000000005      1.4383958400000001      33.083104320000004
   233   1      5.7535833600000004      2.8767916800000002      34.521500160000002
   234   1      4.3151875200000003      4.3151875200000003      35.959896000000001
   235   1      2.8767916800000002      5.7535833600000004      37.398291839999999
   236   1      1.4383958400000001      7.1919792000000005      38.836687680000004
   237   1                       0      8.6303750400000006      40.275083520000003
   238   1      8.6303750400000006                       0      34.521500160000002
   239   1      7.1919792000000005      1.4383958400000001      35.959896000000001
   240   1      5.7535833600000004      2.8767916800000002      37.398291839999999
   241   1      4.3151875200000003      4.3151875200000003      38.836687680000004
   242   1      2.8767916800000002      5.7535833600000004      40.275083520000003
   243   1      1.4383958400000001      7.1919792000000005      41.713479360000001
   244   1                       0      8.6303750400000006      43.151875200000006
   245   1      8.6303750400000006                       0      37.398291839999999
   246   1      7.1919792000000005      1.4383958400000001      38.836687680000004
   247   1      5.7535833600000004      2.8767916800000002      40.275083520000003
   248   1      4.3151875200000003      4.3151875200000003      41.713479360000001
   249   1      2.8767916800000002      5.7535833600000004      43.151875200000006
   250   1      1.4383958400000001      7.1919792000000005      44.590271040000005
   251   1      8.6303750400000006                       0      40.275083520000003
   252   1      7.1919792000000005      1.4383958400000001      41.713479360000001
   253   1      5.7535833600000004      2.8767916800000002      43.151875200000006
   254   1      4.3151875200000003      4.3151875200000003      44.590271040000005
   255   1      8.6303750400000006                       0      43.151875200000006
   256   1      7.1919792000000005      1.4383958400000001      44.590271040000005
   257   1                       0      11.507166720000001                       0
   258   1      2.8767916800000002      8.6303750400000006                       0
   259   1      1.4383958400000001      10.068770880000001      1.4383958400000001
   260   1                       0      11.507166720000001      2.8767916800000002
   261   1      5.7535833600000004      5.7535833600000004                       0
   262   1      4.3151875200000003      7.1919792000000005      1.4383958400000001
   263   1      2.8767916800000002      8.6303750400000006      2.8767916800000002
   264   1      1.4383958400000001      10.068770880000001      4.3151875200000003
   265   1                       0      11.507166720000001      5.7535833600000004
   266   1      8.6303750400000006      2.8767916800000002                       0
   267   1      7.1919792000000005      4.3151875200000003      1.4383958400000001
   268   1      5.7535833600000004      5.7535833600000004      2.8767916800000002
   269   1      4.3151875200000003      7.1919792000000005      4.3151875200000003
   270   1      2.8767916800000002      8.6303750400000006      5.7535833600000004
   271   1      1.4383958400000001      10.068770880000001      7.1919792000000005
   272   1                       0      11.507166720000001      8.6303750400000006
   273   1      11.507166720000001                       0                       0
   274   1      10.068770880000001      1.4383958400000001      1.4383958400000001
   275   1      8.6303750400000006      2.8767916800000002      2.8767916800000002
   276   1      7.1919792000000005      4.3151875200000003      4.3151875200000003
   277   1      5.7535833600000004      5.7535833600000004      5.7535833600000004
   278   1      4.3151875200000003      7.1919792000000005      7.1919792000000005
   279   1      2.8767916800000002      8.6303750400000006      8.6303750400000006
   280   1      1.4383958400000001      10.068770880000001      10.068770880000001
   281   1                       0      11.507166720000001      11.507166720000001
   282   1      11.507166720000001                       0      2.8767916800000002
   283   1      10.068770880000001      1.4383958400000001      4.3151875200000003
   284   1      8.6303750400000006      2.8767916800000002      5.7535833600000004
   285   1      7.1919792000000005      4.3151875200000003      7.1919792000000005
   286   1      5.7535833600000004      5.7535833600000004      8.6303750400000006
   287   1      4.3151875200000003      7.1919792000000005      10.068770880000001
   288   1      2.8767916800000002      8.6303750400000006      11.507166720000001
   289   1      1.4383958400000001      10.068770880000001      12.945562560000001
   290   1                       0      11.507166720000001      14.383958400000001
   291   1      11.507166720000001                       0      5.7535833600000004
   292   1      10.068770880000001      1.4383958400000001      7.1919792000000005
   293   1      8.6303750400000006      2.8767916800000002      8.6303750400000006
   294   1      7.1919792000000005      4.3151875200000003      10.068770880000001
   295   1      5.7535833600000004      5.7535833600000004      11.507166720000001
   296   1      4.3151875200000003      7.1919792000000005      12.945562560000001
   297   1      2.8767916800000002      8.6303750400000006      14.383958400000001
   298   1      1.4383958400000001      10.068770880000001      15.822354240000001
   299   1                       0      11.507166720000001      17.260750080000001
   300   1      11.507166720000001                       0      8.6303750400000006
   301   1      10.068770880000001      1.4383958400000001      10.068770880000001
   302   1      8.6303750400000006      2.8767916800000002      11.507166720000001
   303   1      7.1919792000000005      4.3151875200000003      12.945562560000001
   304   1      5.7535833600000004      5.7535833600000004      14.383958400000001
   305   1      4.3151875200000003      7.1919792000000005      15.822354240000001
   306   1      2.8767916800000002      8.6303750400000006      17.260750080000001
   307   1      1.4383958400000001      10.068770880000001      18.699145919999999
   308   1                       0      11.507166720000001      20.137541760000001
   309   1      11.507166720000001                       0      11.507166720000001
   310   1      10.068770880000001      1.4383958400000001      12.945562560000001
   311   1      8.6303750400000006      2.8767916800000002      14.383958400000001
   312   1      7.1919792000000005      4.3151875200000003      15.822354240000001
   313   1      5.7535833600000004      5.7535833600000004      17.260750080000001
   314   1      4.3151875200000003      7.1919792000000005      18.699145919999999
   315   1      2.8767916800000002      8.6303750400000006      20.137541760000001
   316   1      1.4383958400000001      10.068770880000001      21.575937600000003
   317   1                       0      11.507166720000001      23.014333440000001
   318   1      11.507166720000001                       0      14.383958400000001
   319   1      10.068770880000001      1.4383958400000001      15.822354240000001
   320   1      8.6303750400000006      2.8767916800000002      17.260750080000001
   321   1      7.1919792000000005      4.3151875200000003      18.699145919999999
   322   1      5.7535833600000004      5.7535833600000004      20.137541760000001
   323   1      4.3151875200000003      7.1919792000000005      21.575937600000003
   324   1      2.8767916800000002      8.6303750400000006      23.014333440000001
   325   1      1.4383958400000001      10.068770880000001             24.45272928
   326   1                       0      11.507166720000001      25.891125120000002
   327   1      11.507166720000001                       0      17.260750080000001
   328   1      10.068770880000001      1.4383958400000001      18.699145919999999
   329   1      8.6303750400000006      2.8767916800000002      20.137541760000001
   330   1      7.1919792000000005      4.3151875200000003      21.575937600000003
   331   1      5.7535833600000004      5.7535833600000004      23.014333440000001
   332   1      4.3151875200000003      7.1919792000000005             24.45272928
   333   1      2.8767916800000002      8.6303750400000006      25.891125120000002
   334   1      1.4383958400000001      10.068770880000001      27.329520960000004
   335   1                       0      11.507166720000001      28.767916800000002
   336   1      11.507166720000001                       0      20.137541760000001
   337   1      10.068770880000001      1.4383958400000001      21.575937600000003
   338   1      8.6303750400000006      2.8767916800000002      23.014333440000001
   339   1      7.1919792000000005      4.3151875200000003             24.45272928
   340   1      5.7535833600000004      5.7535833600000004      25.891125120000002
   341   1      4.3151875200000003      7.1919792000000005      27.329520960000004
   342   1      2.8767916800000002      8.6303750400000006      28.767916800000002
   343   1      1.4383958400000001      10.068770880000001             30.20631264
   344   1                       0      11.507166720000001      31.644708480000002
   345   1      11.507166720000001                       0      23.014333440000001
   346   1      10.068770880000001      1.4383958400000001             24.45272928
   347   1      8.6303750400000006      2.8767916800000002      25.891125120000002
   348   1      7.1919792000000005      4.3151875200000003      27.329520960000004
   349   1      5.7535833600000004      5.7535833600000004      28.767916800000002
   350   1      4.3151875200000003      7.1919792000000005             30.20631264
   351   1      2.8767916800000002      8.6303750400000006      31.644708480000002
   352   1      1.4383958400000001      10.068770880000001      33.083104320000004
   353   1                       0      11.507166720000001      34.521500160000002
   354   1      11.507166720000001                       0      25.891125120000002
   355   1      10.068770880000001      1.4383958400000001      27.329520960000004
   356   1      8.6303750400000006      2.8767916800000002      28.767916800000002
   357   1      7.1919792000000005      4.3151875200000003             30.20631264
   358   1      5.7535833600000004      5.7535833600000004      31.644708480000002
   359   1      4.3151875200000003      7.1919792000000005      33.083104320000004