DATA (written by ASE) 

16 	 atoms 
1  atom types
0.0      5.7535833600000004  xlo xhi
0.0      5.7535833600000004  ylo yhi
0.0      5.7535833600000004  zlo zhi


Atoms 

     1   1                       0                       0                       0
     2   1                       0                       0      2.8767916800000002
     3   1                       0      2.8767916800000002                       0
     4   1      2.8767916800000002                       0                       0
     5   1      1.4383958400000001      1.4383958400000001      1.4383958400000001
     6   1                       0      2.8767916800000002      2.8767916800000002
     7   1      2.8767916800000002                       0      2.8767916800000002
     8   1      1.4383958400000001      1.4383958400000001      4.3151875200000003
     9   1      2.8767916800000002      2.8767916800000002                       0
    10   1      1.4383958400000001      4.3151875200000003      1.4383958400000001
    11   1      4.3151875200000003      1.4383958400000001      1.4383958400000001
    12   1      2.8767916800000002      2.8767916800000002      2.8767916800000002
    13   1      1.4383958400000001      4.3151875200000003      4.3151875200000003
    14   1      4.3151875200000003      1.4383958400000001      4.3151875200000003
    15   1      4.3151875200000003      4.3151875200000003      1.4383958400000001
    16   1      4.3151875200000003      4.3151875200000003      4.3151875200000003
