DATA (written by ASE) 

12000 	 atoms 
1  atom types
0.0      14.383958400000001  xlo xhi
0.0      14.383958400000001  ylo yhi
0.0      345.21500160000005  zlo zhi


Atoms 

     1   1                       0                       0                       0
     2   1     0.35959896000000002     0.35959896000000002     0.35959896000000002
     3   1                       0      2.8767916800000002                       0
     4   1     0.35959896000000002      3.2363906400000002     0.35959896000000002
     5   1                       0      5.7535833600000004                       0
     6   1     0.35959896000000002      6.1131823199999999     0.35959896000000002
     7   1                       0      8.6303750400000006                       0
     8   1     0.35959896000000002      8.9899740000000001     0.35959896000000002
     9   1                       0      11.507166720000001                       0
    10   1     0.35959896000000002             11.86676568     0.35959896000000002
    11   1      2.8767916800000002                       0                       0
    12   1      3.2363906400000002     0.35959896000000002     0.35959896000000002
    13   1                       0                       0      2.8767916800000002
    14   1     0.35959896000000002     0.35959896000000002      3.2363906400000002
    15   1      1.4383958400000001      1.4383958400000001      1.4383958400000001
    16   1      1.7979948000000001      1.7979948000000001      1.7979948000000001
    17   1      2.8767916800000002      2.8767916800000002                       0
    18   1      3.2363906400000002      3.2363906400000002     0.35959896000000002
    19   1                       0      2.8767916800000002      2.8767916800000002
    20   1     0.35959896000000002      3.2363906400000002      3.2363906400000002
    21   1      1.4383958400000001      4.3151875200000003      1.4383958400000001
    22   1      1.7979948000000001      4.6747864799999999      1.7979948000000001
    23   1      2.8767916800000002      5.7535833600000004                       0
    24   1      3.2363906400000002      6.1131823199999999     0.35959896000000002
    25   1                       0      5.7535833600000004      2.8767916800000002
    26   1     0.35959896000000002      6.1131823199999999      3.2363906400000002
    27   1      1.4383958400000001      7.1919792000000005      1.4383958400000001
    28   1      1.7979948000000001              7.55157816      1.7979948000000001
    29   1      2.8767916800000002      8.6303750400000006                       0
    30   1      3.2363906400000002      8.9899740000000001     0.35959896000000002
    31   1                       0      8.6303750400000006      2.8767916800000002
    32   1     0.35959896000000002      8.9899740000000001      3.2363906400000002
    33   1      1.4383958400000001      10.068770880000001      1.4383958400000001
    34   1      1.7979948000000001             10.42836984      1.7979948000000001
    35   1      2.8767916800000002      11.507166720000001                       0
    36   1      3.2363906400000002             11.86676568     0.35959896000000002
    37   1                       0      11.507166720000001      2.8767916800000002
    38   1     0.35959896000000002             11.86676568      3.2363906400000002
    39   1      1.4383958400000001      12.945562560000001      1.4383958400000001
    40   1      1.7979948000000001             13.30516152      1.7979948000000001
    41   1      5.7535833600000004                       0                       0
    42   1      6.1131823199999999     0.35959896000000002     0.35959896000000002
    43   1      2.8767916800000002                       0      2.8767916800000002
    44   1      3.2363906400000002     0.35959896000000002      3.2363906400000002
    45   1      4.3151875200000003      1.4383958400000001      1.4383958400000001
    46   1      4.6747864799999999      1.7979948000000001      1.7979948000000001
    47   1      5.7535833600000004      2.8767916800000002                       0
    48   1      6.1131823199999999      3.2363906400000002     0.35959896000000002
    49   1                       0                       0      5.7535833600000004
    50   1     0.35959896000000002     0.35959896000000002      6.1131823199999999
    51   1      1.4383958400000001      1.4383958400000001      4.3151875200000003
    52   1      1.7979948000000001      1.7979948000000001      4.6747864799999999
    53   1      2.8767916800000002      2.8767916800000002      2.8767916800000002
    54   1      3.2363906400000002      3.2363906400000002      3.2363906400000002
    55   1      4.3151875200000003      4.3151875200000003      1.4383958400000001
    56   1      4.6747864799999999      4.6747864799999999      1.7979948000000001
    57   1      5.7535833600000004      5.7535833600000004                       0
    58   1      6.1131823199999999      6.1131823199999999     0.35959896000000002
    59   1                       0      2.8767916800000002      5.7535833600000004
    60   1     0.35959896000000002      3.2363906400000002      6.1131823199999999
    61   1      1.4383958400000001      4.3151875200000003      4.3151875200000003
    62   1      1.7979948000000001      4.6747864799999999      4.6747864799999999
    63   1      2.8767916800000002      5.7535833600000004      2.8767916800000002
    64   1      3.2363906400000002      6.1131823199999999      3.2363906400000002
    65   1      4.3151875200000003      7.1919792000000005      1.4383958400000001
    66   1      4.6747864799999999              7.55157816      1.7979948000000001
    67   1      5.7535833600000004      8.6303750400000006                       0
    68   1      6.1131823199999999      8.9899740000000001     0.35959896000000002
    69   1                       0      5.7535833600000004      5.7535833600000004
    70   1     0.35959896000000002      6.1131823199999999      6.1131823199999999
    71   1      1.4383958400000001      7.1919792000000005      4.3151875200000003
    72   1      1.7979948000000001              7.55157816      4.6747864799999999
    73   1      2.8767916800000002      8.6303750400000006      2.8767916800000002
    74   1      3.2363906400000002      8.9899740000000001      3.2363906400000002
    75   1      4.3151875200000003      10.068770880000001      1.4383958400000001
    76   1      4.6747864799999999             10.42836984      1.7979948000000001
    77   1      5.7535833600000004      11.507166720000001                       0
    78   1      6.1131823199999999             11.86676568     0.35959896000000002
    79   1                       0      8.6303750400000006      5.7535833600000004
    80   1     0.35959896000000002      8.9899740000000001      6.1131823199999999
    81   1      1.4383958400000001      10.068770880000001      4.3151875200000003
    82   1      1.7979948000000001             10.42836984      4.6747864799999999
    83   1      2.8767916800000002      11.507166720000001      2.8767916800000002
    84   1      3.2363906400000002             11.86676568      3.2363906400000002
    85   1      4.3151875200000003      12.945562560000001      1.4383958400000001
    86   1      4.6747864799999999             13.30516152      1.7979948000000001
    87   1                       0      11.507166720000001      5.7535833600000004
    88   1     0.35959896000000002             11.86676568      6.1131823199999999
    89   1      1.4383958400000001      12.945562560000001      4.3151875200000003
    90   1      1.7979948000000001             13.30516152      4.6747864799999999
    91   1      8.6303750400000006                       0                       0
    92   1      8.9899740000000001     0.35959896000000002     0.35959896000000002
    93   1      5.7535833600000004                       0      2.8767916800000002
    94   1      6.1131823199999999     0.35959896000000002      3.2363906400000002
    95   1      7.1919792000000005      1.4383958400000001      1.4383958400000001
    96   1              7.55157816      1.7979948000000001      1.7979948000000001
    97   1      8.6303750400000006      2.8767916800000002                       0
    98   1      8.9899740000000001      3.2363906400000002     0.35959896000000002
    99   1      2.8767916800000002                       0      5.7535833600000004
   100   1      3.2363906400000002     0.35959896000000002      6.1131823199999999
   101   1      4.3151875200000003      1.4383958400000001      4.3151875200000003
   102   1      4.6747864799999999      1.7979948000000001      4.6747864799999999
   103   1      5.7535833600000004      2.8767916800000002      2.8767916800000002
   104   1      6.1131823199999999      3.2363906400000002      3.2363906400000002
   105   1      7.1919792000000005      4.3151875200000003      1.4383958400000001
   106   1              7.55157816      4.6747864799999999      1.7979948000000001
   107   1      8.6303750400000006      5.7535833600000004                       0
   108   1      8.9899740000000001      6.1131823199999999     0.35959896000000002
   109   1                       0                       0      8.6303750400000006
   110   1     0.35959896000000002     0.35959896000000002      8.9899740000000001
   111   1      1.4383958400000001      1.4383958400000001      7.1919792000000005
   112   1      1.7979948000000001      1.7979948000000001              7.55157816
   113   1      2.8767916800000002      2.8767916800000002      5.7535833600000004
   114   1      3.2363906400000002      3.2363906400000002      6.1131823199999999
   115   1      4.3151875200000003      4.3151875200000003      4.3151875200000003
   116   1      4.6747864799999999      4.6747864799999999      4.6747864799999999
   117   1      5.7535833600000004      5.7535833600000004      2.8767916800000002
   118   1      6.1131823199999999      6.1131823199999999      3.2363906400000002
   119   1      7.1919792000000005      7.1919792000000005      1.4383958400000001
   120   1              7.55157816              7.55157816      1.7979948000000001
   121   1      8.6303750400000006      8.6303750400000006                       0
   122   1      8.9899740000000001      8.9899740000000001     0.35959896000000002
   123   1                       0      2.8767916800000002      8.6303750400000006
   124   1     0.35959896000000002      3.2363906400000002      8.9899740000000001
   125   1      1.4383958400000001      4.3151875200000003      7.1919792000000005
   126   1      1.7979948000000001      4.6747864799999999              7.55157816
   127   1      2.8767916800000002      5.7535833600000004      5.7535833600000004
   128   1      3.2363906400000002      6.1131823199999999      6.1131823199999999
   129   1      4.3151875200000003      7.1919792000000005      4.3151875200000003
   130   1      4.6747864799999999              7.55157816      4.6747864799999999
   131   1      5.7535833600000004      8.6303750400000006      2.8767916800000002
   132   1      6.1131823199999999      8.9899740000000001      3.2363906400000002
   133   1      7.1919792000000005      10.068770880000001      1.4383958400000001
   134   1              7.55157816             10.42836984      1.7979948000000001
   135   1      8.6303750400000006      11.507166720000001                       0
   136   1      8.9899740000000001             11.86676568     0.35959896000000002
   137   1                       0      5.7535833600000004      8.6303750400000006
   138   1     0.35959896000000002      6.1131823199999999      8.9899740000000001
   139   1      1.4383958400000001      7.1919792000000005      7.1919792000000005
   140   1      1.7979948000000001              7.55157816              7.55157816
   141   1      2.8767916800000002      8.6303750400000006      5.7535833600000004
   142   1      3.2363906400000002      8.9899740000000001      6.1131823199999999
   143   1      4.3151875200000003      10.068770880000001      4.3151875200000003
   144   1      4.6747864799999999             10.42836984      4.6747864799999999
   145   1      5.7535833600000004      11.507166720000001      2.8767916800000002
   146   1      6.1131823199999999             11.86676568      3.2363906400000002
   147   1      7.1919792000000005      12.945562560000001      1.4383958400000001
   148   1              7.55157816             13.30516152      1.7979948000000001
   149   1                       0      8.6303750400000006      8.6303750400000006
   150   1     0.35959896000000002      8.9899740000000001      8.9899740000000001
   151   1      1.4383958400000001      10.068770880000001      7.1919792000000005
   152   1      1.7979948000000001             10.42836984              7.55157816
   153   1      2.8767916800000002      11.507166720000001      5.7535833600000004
   154   1      3.2363906400000002             11.86676568      6.1131823199999999
   155   1      4.3151875200000003      12.945562560000001      4.3151875200000003
   156   1      4.6747864799999999             13.30516152      4.6747864799999999
   157   1                       0      11.507166720000001      8.6303750400000006
   158   1     0.35959896000000002             11.86676568      8.9899740000000001
   159   1      1.4383958400000001      12.945562560000001      7.1919792000000005
   160   1      1.7979948000000001             13.30516152              7.55157816
   161   1      11.507166720000001                       0                       0
   162   1             11.86676568     0.35959896000000002     0.35959896000000002
   163   1      8.6303750400000006                       0      2.8767916800000002
   164   1      8.9899740000000001     0.35959896000000002      3.2363906400000002
   165   1      10.068770880000001      1.4383958400000001      1.4383958400000001
   166   1             10.42836984      1.7979948000000001      1.7979948000000001
   167   1      11.507166720000001      2.8767916800000002                       0
   168   1             11.86676568      3.2363906400000002     0.35959896000000002
   169   1      5.7535833600000004                       0      5.7535833600000004
   170   1      6.1131823199999999     0.35959896000000002      6.1131823199999999
   171   1      7.1919792000000005      1.4383958400000001      4.3151875200000003
   172   1              7.55157816      1.7979948000000001      4.6747864799999999
   173   1      8.6303750400000006      2.8767916800000002      2.8767916800000002
   174   1      8.9899740000000001      3.2363906400000002      3.2363906400000002
   175   1      10.068770880000001      4.3151875200000003      1.4383958400000001
   176   1             10.42836984      4.6747864799999999      1.7979948000000001
   177   1      11.507166720000001      5.7535833600000004                       0
   178   1             11.86676568      6.1131823199999999     0.35959896000000002
   179   1      2.8767916800000002                       0      8.6303750400000006
   180   1      3.2363906400000002     0.35959896000000002      8.9899740000000001
   181   1      4.3151875200000003      1.4383958400000001      7.1919792000000005
   182   1      4.6747864799999999      1.7979948000000001              7.55157816
   183   1      5.7535833600000004      2.8767916800000002      5.7535833600000004
   184   1      6.1131823199999999      3.2363906400000002      6.1131823199999999
   185   1      7.1919792000000005      4.3151875200000003      4.3151875200000003
   186   1              7.55157816      4.6747864799999999      4.6747864799999999
   187   1      8.6303750400000006      5.7535833600000004      2.8767916800000002
   188   1      8.9899740000000001      6.1131823199999999      3.2363906400000002
   189   1      10.068770880000001      7.1919792000000005      1.4383958400000001
   190   1             10.42836984              7.55157816      1.7979948000000001
   191   1      11.507166720000001      8.6303750400000006                       0
   192   1             11.86676568      8.9899740000000001     0.35959896000000002
   193   1                       0                       0      11.507166720000001
   194   1     0.35959896000000002     0.35959896000000002             11.86676568
   195   1      1.4383958400000001      1.4383958400000001      10.068770880000001
   196   1      1.7979948000000001      1.7979948000000001             10.42836984
   197   1      2.8767916800000002      2.8767916800000002      8.6303750400000006
   198   1      3.2363906400000002      3.2363906400000002      8.9899740000000001
   199   1      4.3151875200000003      4.3151875200000003      7.1919792000000005
   200   1      4.6747864799999999      4.6747864799999999              7.55157816
   201   1      5.7535833600000004      5.7535833600000004      5.7535833600000004
   202   1      6.1131823199999999      6.1131823199999999      6.1131823199999999
   203   1      7.1919792000000005      7.1919792000000005      4.3151875200000003
   204   1              7.55157816              7.55157816      4.6747864799999999
   205   1      8.6303750400000006      8.6303750400000006      2.8767916800000002
   206   1      8.9899740000000001      8.9899740000000001      3.2363906400000002
   207   1      10.068770880000001      10.068770880000001      1.4383958400000001
   208   1             10.42836984             10.42836984      1.7979948000000001
   209   1      11.507166720000001      11.507166720000001                       0
   210   1             11.86676568             11.86676568     0.35959896000000002
   211   1                       0      2.8767916800000002      11.507166720000001
   212   1     0.35959896000000002      3.2363906400000002             11.86676568
   213   1      1.4383958400000001      4.3151875200000003      10.068770880000001
   214   1      1.7979948000000001      4.6747864799999999             10.42836984
   215   1      2.8767916800000002      5.7535833600000004      8.6303750400000006
   216   1      3.2363906400000002      6.1131823199999999      8.9899740000000001
   217   1      4.3151875200000003      7.1919792000000005      7.1919792000000005
   218   1      4.6747864799999999              7.55157816              7.55157816
   219   1      5.7535833600000004      8.6303750400000006      5.7535833600000004
   220   1      6.1131823199999999      8.9899740000000001      6.1131823199999999
   221   1      7.1919792000000005      10.068770880000001      4.3151875200000003
   222   1              7.55157816             10.42836984      4.6747864799999999
   223   1      8.6303750400000006      11.507166720000001      2.8767916800000002
   224   1      8.9899740000000001             11.86676568      3.2363906400000002
   225   1      10.068770880000001      12.945562560000001      1.4383958400000001
   226   1             10.42836984             13.30516152      1.7979948000000001
   227   1                       0      5.7535833600000004      11.507166720000001
   228   1     0.35959896000000002      6.1131823199999999             11.86676568
   229   1      1.4383958400000001      7.1919792000000005      10.068770880000001
   230   1      1.7979948000000001              7.55157816             10.42836984
   231   1      2.8767916800000002      8.6303750400000006      8.6303750400000006
   232   1      3.2363906400000002      8.9899740000000001      8.9899740000000001
   233   1      4.3151875200000003      10.068770880000001      7.1919792000000005
   234   1      4.6747864799999999             10.42836984              7.55157816
   235   1      5.7535833600000004      11.507166720000001      5.7535833600000004
   236   1      6.1131823199999999             11.86676568      6.1131823199999999
   237   1      7.1919792000000005      12.945562560000001      4.3151875200000003
   238   1              7.55157816             13.30516152      4.6747864799999999
   239   1                       0      8.6303750400000006      11.507166720000001
   240   1     0.35959896000000002      8.9899740000000001             11.86676568
   241   1      1.4383958400000001      10.068770880000001      10.068770880000001
   242   1      1.7979948000000001             10.42836984             10.42836984
   243   1      2.8767916800000002      11.507166720000001      8.6303750400000006
   244   1      3.2363906400000002             11.86676568      8.9899740000000001
   245   1      4.3151875200000003      12.945562560000001      7.1919792000000005
   246   1      4.6747864799999999             13.30516152              7.55157816
   247   1                       0      11.507166720000001      11.507166720000001
   248   1     0.35959896000000002             11.86676568             11.86676568
   249   1      1.4383958400000001      12.945562560000001      10.068770880000001
   250   1      1.7979948000000001             13.30516152             10.42836984
   251   1      11.507166720000001                       0      2.8767916800000002
   252   1             11.86676568     0.35959896000000002      3.2363906400000002
   253   1      12.945562560000001      1.4383958400000001      1.4383958400000001
   254   1             13.30516152      1.7979948000000001      1.7979948000000001
   255   1      8.6303750400000006                       0      5.7535833600000004
   256   1      8.9899740000000001     0.35959896000000002      6.1131823199999999
   257   1      10.068770880000001      1.4383958400000001      4.3151875200000003
   258   1             10.42836984      1.7979948000000001      4.6747864799999999
   259   1      11.507166720000001      2.8767916800000002      2.8767916800000002
   260   1             11.86676568      3.2363906400000002      3.2363906400000002
   261   1      12.945562560000001      4.3151875200000003      1.4383958400000001
   262   1             13.30516152      4.6747864799999999      1.7979948000000001
   263   1      5.7535833600000004                       0      8.6303750400000006
   264   1      6.1131823199999999     0.35959896000000002      8.9899740000000001
   265   1      7.1919792000000005      1.4383958400000001      7.1919792000000005
   266   1              7.55157816      1.7979948000000001              7.55157816
   267   1      8.6303750400000006      2.8767916800000002      5.7535833600000004
   268   1      8.9899740000000001      3.2363906400000002      6.1131823199999999
   269   1      10.068770880000001      4.3151875200000003      4.3151875200000003
   270   1             10.42836984      4.6747864799999999      4.6747864799999999
   271   1      11.507166720000001      5.7535833600000004      2.8767916800000002
   272   1             11.86676568      6.1131823199999999      3.2363906400000002
   273   1      12.945562560000001      7.1919792000000005      1.4383958400000001
   274   1             13.30516152              7.55157816      1.7979948000000001
   275   1      2.8767916800000002                       0      11.507166720000001
   276   1      3.2363906400000002     0.35959896000000002             11.86676568
   277   1      4.3151875200000003      1.4383958400000001      10.068770880000001
   278   1      4.6747864799999999      1.7979948000000001             10.42836984
   279   1      5.7535833600000004      2.8767916800000002      8.6303750400000006
   280   1      6.1131823199999999      3.2363906400000002      8.9899740000000001
   281   1      7.1919792000000005      4.3151875200000003      7.1919792000000005
   282   1              7.55157816      4.6747864799999999              7.55157816
   283   1      8.6303750400000006      5.7535833600000004      5.7535833600000004
   284   1      8.9899740000000001      6.1131823199999999      6.1131823199999999
   285   1      10.068770880000001      7.1919792000000005      4.3151875200000003
   286   1             10.42836984              7.55157816      4.6747864799999999
   287   1      11.507166720000001      8.6303750400000006      2.8767916800000002
   288   1             11.86676568      8.9899740000000001      3.2363906400000002
   289   1      12.945562560000001      10.068770880000001      1.4383958400000001
   290   1             13.30516152             10.42836984      1.7979948000000001
   291   1                       0                       0      14.383958400000001
   292   1     0.35959896000000002     0.35959896000000002      14.743557360000001
   293   1      1.4383958400000001      1.4383958400000001      12.945562560000001
   294   1      1.7979948000000001      1.7979948000000001             13.30516152
   295   1      2.8767916800000002      2.8767916800000002      11.507166720000001
   296   1      3.2363906400000002      3.2363906400000002             11.86676568
   297   1      4.3151875200000003      4.3151875200000003      10.068770880000001
   298   1      4.6747864799999999      4.6747864799999999             10.42836984
   299   1      5.7535833600000004      5.7535833600000004      8.6303750400000006
   300   1      6.1131823199999999      6.1131823199999999      8.9899740000000001
   301   1      7.1919792000000005      7.1919792000000005      7.1919792000000005
   302   1              7.55157816              7.55157816              7.55157816
   303   1      8.6303750400000006      8.6303750400000006      5.7535833600000004
   304   1      8.9899740000000001      8.9899740000000001      6.1131823199999999
   305   1      10.068770880000001      10.068770880000001      4.3151875200000003
   306   1             10.42836984             10.42836984      4.6747864799999999
   307   1      11.507166720000001      11.507166720000001      2.8767916800000002
   308   1             11.86676568             11.86676568      3.2363906400000002
   309   1      12.945562560000001      12.945562560000001      1.4383958400000001
   310   1             13.30516152             13.30516152      1.7979948000000001
   311   1                       0      2.8767916800000002      14.383958400000001
   312   1     0.35959896000000002      3.2363906400000002      14.743557360000001
   313   1      1.4383958400000001      4.3151875200000003      12.945562560000001
   314   1      1.7979948000000001      4.6747864799999999             13.30516152
   315   1      2.8767916800000002      5.7535833600000004      11.507166720000001
   316   1      3.2363906400000002      6.1131823199999999             11.86676568
   317   1      4.3151875200000003      7.1919792000000005      10.068770880000001
   318   1      4.6747864799999999              7.55157816             10.42836984
   319   1      5.7535833600000004      8.6303750400000006      8.6303750400000006
   320   1      6.1131823199999999      8.9899740000000001      8.9899740000000001
   321   1      7.1919792000000005      10.068770880000001      7.1919792000000005
   322   1              7.55157816             10.42836984              7.55157816
   323   1      8.6303750400000006      11.507166720000001      5.7535833600000004
   324   1      8.9899740000000001             11.86676568      6.1131823199999999
   325   1      10.068770880000001      12.945562560000001      4.3151875200000003
   326   1             10.42836984             13.30516152      4.6747864799999999
   327   1                       0      5.7535833600000004      14.383958400000001
   328   1     0.35959896000000002      6.1131823199999999      14.743557360000001
   329   1      1.4383958400000001      7.1919792000000005      12.945562560000001
   330   1      1.7979948000000001              7.55157816             13.30516152
   331   1      2.8767916800000002      8.6303750400000006      11.507166720000001
   332   1      3.2363906400000002      8.9899740000000001             11.86676568
   333   1      4.3151875200000003      10.068770880000001      10.068770880000001
   334   1      4.6747864799999999             10.42836984             10.42836984
   335   1      5.7535833600000004      11.507166720000001      8.6303750400000006
   336   1      6.1131823199999999             11.86676568      8.9899740000000001
   337   1      7.1919792000000005      12.945562560000001      7.1919792000000005
   338   1              7.55157816             13.30516152              7.55157816
   339   1                       0      8.6303750400000006      14.383958400000001
   340   1     0.35959896000000002      8.9899740000000001      14.743557360000001
   341   1      1.4383958400000001      10.068770880000001      12.945562560000001
   342   1      1.7979948000000001             10.42836984             13.30516152
   343   1      2.8767916800000002      11.507166720000001      11.507166720000001
   344   1      3.2363906400000002             11.86676568             11.86676568
   345   1      4.3151875200000003      12.945562560000001      10.068770880000001
   346   1      4.6747864799999999             13.30516152             10.42836984
   347   1                       0      11.507166720000001      14.383958400000001
   348   1     0.35959896000000002             11.86676568      14.743557360000001
   349   1      1.4383958400000001      12.945562560000001      12.945562560000001
   350   1      1.7979948000000001             13.30516152             13.30516152
   351   1      11.507166720000001                       0      5.7535833600000004
   352   1             11.86676568     0.35959896000000002      6.1131823199999999
   353   1      12.945562560000001      1.4383958400000001      4.3151875200000003
   354   1             13.30516152      1.7979948000000001      4.6747864799999999
   355   1      8.6303750400000006                       0      8.6303750400000006
   356   1      8.9899740000000001     0.35959896000000002      8.9899740000000001
   357   1      10.068770880000001      1.4383958400000001      7.1919792000000005
   358   1             10.42836984      1.7979948000000001              7.55157816
   359   1      11.507166720000001      2.8767916800000002      5.7535833600000004