DATA (written by ASE) 

10000 	 atoms 
1  atom types
0.0      14.383958400000001  xlo xhi
0.0      14.383958400000001  ylo yhi
0.0      575.35833600000001  zlo zhi


Atoms 

     1   1                       0                       0                       0
     2   1                       0                       0      2.8767916800000002
     3   1                       0                       0      5.7535833600000004
     4   1                       0                       0      8.6303750400000006
     5   1                       0                       0      11.507166720000001
     6   1                       0                       0      14.383958400000001
     7   1                       0                       0      17.260750080000001
     8   1                       0                       0      20.137541760000001
     9   1                       0                       0      23.014333440000001
    10   1                       0                       0      25.891125120000002
    11   1                       0                       0      28.767916800000002
    12   1                       0                       0      31.644708480000002
    13   1                       0                       0      34.521500160000002
    14   1                       0                       0      37.398291839999999
    15   1                       0                       0      40.275083520000003
    16   1                       0                       0      43.151875200000006
    17   1                       0                       0      46.028666880000003
    18   1                       0                       0             48.90545856
    19   1                       0                       0      51.782250240000003
    20   1                       0                       0      54.659041920000007
    21   1                       0                       0      57.535833600000004
    22   1                       0                       0             60.41262528
    23   1                       0                       0      63.289416960000004
    24   1                       0                       0      66.166208640000008
    25   1                       0                       0      69.043000320000004
    26   1                       0                       0      71.919792000000001
    27   1                       0                       0      74.796583679999998
    28   1                       0                       0      77.673375360000009
    29   1                       0                       0      80.550167040000005
    30   1                       0                       0      83.426958720000002
    31   1                       0                       0      86.303750400000013
    32   1                       0                       0      89.180542080000009
    33   1                       0                       0      92.057333760000006
    34   1                       0                       0      94.934125440000003
    35   1                       0                       0      97.810917119999999
    36   1                       0                       0      100.68770880000001
    37   1                       0                       0      103.56450048000001
    38   1                       0                       0            106.44129216
    39   1                       0                       0      109.31808384000001
    40   1                       0                       0      112.19487552000001
    41   1                       0                       0      115.07166720000001
    42   1                       0                       0            117.94845888
    43   1                       0                       0            120.82525056
    44   1                       0                       0      123.70204224000001
    45   1                       0                       0      126.57883392000001
    46   1                       0                       0      129.45562560000002
    47   1                       0                       0      132.33241728000002
    48   1                       0                       0      135.20920896000001
    49   1                       0                       0      138.08600064000001
    50   1                       0                       0      140.96279232000001
    51   1                       0                       0              143.839584
    52   1                       0                       0            146.71637568
    53   1                       0                       0            149.59316736
    54   1                       0                       0      152.46995904000002
    55   1                       0                       0      155.34675072000002
    56   1                       0                       0      158.22354240000001
    57   1                       0                       0      161.10033408000001
    58   1                       0                       0      163.97712576000001
    59   1                       0                       0            166.85391744
    60   1                       0                       0            169.73070912
    61   1                       0                       0      172.60750080000003
    62   1                       0                       0      175.48429248000002
    63   1                       0                       0      178.36108416000002
    64   1                       0                       0      181.23787584000002
    65   1                       0                       0      184.11466752000001
    66   1                       0                       0      186.99145920000001
    67   1                       0                       0      189.86825088000001
    68   1                       0                       0            192.74504256
    69   1                       0                       0            195.62183424
    70   1                       0                       0      198.49862592000002
    71   1                       0                       0      201.37541760000002
    72   1                       0                       0      204.25220928000002
    73   1                       0                       0      207.12900096000001
    74   1                       0                       0      210.00579264000001
    75   1                       0                       0      212.88258432000001
    76   1                       0                       0              215.759376
    77   1                       0                       0      218.63616768000003
    78   1                       0                       0      221.51295936000002
    79   1                       0                       0      224.38975104000002
    80   1                       0                       0      227.26654272000002
    81   1                       0                       0      230.14333440000001
    82   1                       0                       0      233.02012608000001
    83   1                       0                       0      235.89691776000001
    84   1                       0                       0            238.77370944
    85   1                       0                       0            241.65050112
    86   1                       0                       0      244.52729280000003
    87   1                       0                       0      247.40408448000002
    88   1                       0                       0      250.28087616000002
    89   1                       0                       0      253.15766784000002
    90   1                       0                       0      256.03445952000004
    91   1                       0                       0      258.91125120000004
    92   1                       0                       0      261.78804288000003
    93   1                       0                       0      264.66483456000003
    94   1                       0                       0      267.54162624000003
    95   1                       0                       0      270.41841792000002
    96   1                       0                       0      273.29520960000002
    97   1                       0                       0      276.17200128000002
    98   1                       0                       0      279.04879296000001
    99   1                       0                       0      281.92558464000001
   100   1                       0                       0      284.80237632000001
   101   1                       0                       0              287.679168
   102   1                       0                       0            290.55595968
   103   1                       0                       0            293.43275136
   104   1                       0                       0      296.30954303999999
   105   1                       0                       0      299.18633471999999
   106   1                       0                       0      302.06312640000004
   107   1                       0                       0      304.93991808000004
   108   1                       0                       0      307.81670976000004
   109   1                       0                       0      310.69350144000003
   110   1                       0                       0      313.57029312000003
   111   1                       0                       0      316.44708480000003
   112   1                       0                       0      319.32387648000002
   113   1                       0                       0      322.20066816000002
   114   1                       0                       0      325.07745984000002
   115   1                       0                       0      327.95425152000001
   116   1                       0                       0      330.83104320000001
   117   1                       0                       0      333.70783488000001
   118   1                       0                       0            336.58462656
   119   1                       0                       0            339.46141824
   120   1                       0                       0            342.33820992
   121   1                       0                       0      345.21500160000005
   122   1                       0                       0      348.09179328000005
   123   1                       0                       0      350.96858496000004
   124   1                       0                       0      353.84537664000004
   125   1                       0                       0      356.72216832000004
   126   1                       0                       0      359.59896000000003
   127   1                       0                       0      362.47575168000003
   128   1                       0                       0      365.35254336000003
   129   1                       0                       0      368.22933504000002
   130   1                       0                       0      371.10612672000002
   131   1                       0                       0      373.98291840000002
   132   1                       0                       0      376.85971008000001
   133   1                       0                       0      379.73650176000001
   134   1                       0                       0      382.61329344000001
   135   1                       0                       0            385.49008512
   136   1                       0                       0             388.3668768
   137   1                       0                       0            391.24366848
   138   1                       0                       0      394.12046016000005
   139   1                       0                       0      396.99725184000005
   140   1                       0                       0      399.87404352000004
   141   1                       0                       0      402.75083520000004
   142   1                       0                       0      405.62762688000004
   143   1                       0                       0      408.50441856000003
   144   1                       0                       0      411.38121024000003
   145   1                       0                       0      414.25800192000003
   146   1                       0                       0      417.13479360000002
   147   1                       0                       0      420.01158528000002
   148   1                       0                       0      422.88837696000002
   149   1                       0                       0      425.76516864000001
   150   1                       0                       0      428.64196032000001
   151   1                       0                       0      431.51875200000001
   152   1                       0                       0            434.39554368
   153   1                       0                       0      437.27233536000006
   154   1                       0                       0      440.14912704000005
   155   1                       0                       0      443.02591872000005
   156   1                       0                       0      445.90271040000005
   157   1                       0                       0      448.77950208000004
   158   1                       0                       0      451.65629376000004
   159   1                       0                       0      454.53308544000004
   160   1                       0                       0      457.40987712000003
   161   1                       0                       0      460.28666880000003
   162   1                       0                       0      463.16346048000003
   163   1                       0                       0      466.04025216000002
   164   1                       0                       0      468.91704384000002
   165   1                       0                       0      471.79383552000002
   166   1                       0                       0      474.67062720000001
   167   1                       0                       0      477.54741888000001
   168   1                       0                       0      480.42421056000001
   169   1                       0                       0            483.30100224
   170   1                       0                       0      486.17779392000006
   171   1                       0                       0      489.05458560000005
   172   1                       0                       0      491.93137728000005
   173   1                       0                       0      494.80816896000005
   174   1                       0                       0      497.68496064000004
   175   1                       0                       0      500.56175232000004
   176   1                       0                       0      503.43854400000004
   177   1                       0                       0      506.31533568000003
   178   1                       0                       0      509.19212736000003
   179   1                       0                       0      512.06891904000008
   180   1                       0                       0      514.94571072000008
   181   1                       0                       0      517.82250240000008
   182   1                       0                       0      520.69929408000007
   183   1                       0                       0      523.57608576000007
   184   1                       0                       0      526.45287744000007
   185   1                       0                       0      529.32966912000006
   186   1                       0                       0      532.20646080000006
   187   1                       0                       0      535.08325248000006
   188   1                       0                       0      537.96004416000005
   189   1                       0                       0      540.83683584000005
   190   1                       0                       0      543.71362752000005
   191   1                       0                       0      546.59041920000004
   192   1                       0                       0      549.46721088000004
   193   1                       0                       0      552.34400256000004
   194   1                       0                       0      555.22079424000003
   195   1                       0                       0      558.09758592000003
   196   1                       0                       0      560.97437760000003
   197   1                       0                       0      563.85116928000002
   198   1                       0                       0      566.72796096000002
   199   1                       0                       0      569.60475264000002
   200   1                       0                       0      572.48154432000001
   201   1                       0      2.8767916800000002                       0
   202   1      2.8767916800000002                       0                       0
   203   1      1.4383958400000001      1.4383958400000001      1.4383958400000001
   204   1                       0      2.8767916800000002      2.8767916800000002
   205   1      2.8767916800000002                       0      2.8767916800000002
   206   1      1.4383958400000001      1.4383958400000001      4.3151875200000003
   207   1                       0      2.8767916800000002      5.7535833600000004
   208   1      2.8767916800000002                       0      5.7535833600000004
   209   1      1.4383958400000001      1.4383958400000001      7.1919792000000005
   210   1                       0      2.8767916800000002      8.6303750400000006
   211   1      2.8767916800000002                       0      8.6303750400000006
   212   1      1.4383958400000001      1.4383958400000001      10.068770880000001
   213   1                       0      2.8767916800000002      11.507166720000001
   214   1      2.8767916800000002                       0      11.507166720000001
   215   1      1.4383958400000001      1.4383958400000001      12.945562560000001
   216   1                       0      2.8767916800000002      14.383958400000001
   217   1      2.8767916800000002                       0      14.383958400000001
   218   1      1.4383958400000001      1.4383958400000001      15.822354240000001
   219   1                       0      2.8767916800000002      17.260750080000001
   220   1      2.8767916800000002                       0      17.260750080000001
   221   1      1.4383958400000001      1.4383958400000001      18.699145919999999
   222   1                       0      2.8767916800000002      20.137541760000001
   223   1      2.8767916800000002                       0      20.137541760000001
   224   1      1.4383958400000001      1.4383958400000001      21.575937600000003
   225   1                       0      2.8767916800000002      23.014333440000001
   226   1      2.8767916800000002                       0      23.014333440000001
   227   1      1.4383958400000001      1.4383958400000001             24.45272928
   228   1                       0      2.8767916800000002      25.891125120000002
   229   1      2.8767916800000002                       0      25.891125120000002
   230   1      1.4383958400000001      1.4383958400000001      27.329520960000004
   231   1                       0      2.8767916800000002      28.767916800000002
   232   1      2.8767916800000002                       0      28.767916800000002
   233   1      1.4383958400000001      1.4383958400000001             30.20631264
   234   1                       0      2.8767916800000002      31.644708480000002
   235   1      2.8767916800000002                       0      31.644708480000002
   236   1      1.4383958400000001      1.4383958400000001      33.083104320000004
   237   1                       0      2.8767916800000002      34.521500160000002
   238   1      2.8767916800000002                       0      34.521500160000002
   239   1      1.4383958400000001      1.4383958400000001      35.959896000000001
   240   1                       0      2.8767916800000002      37.398291839999999
   241   1      2.8767916800000002                       0      37.398291839999999
   242   1      1.4383958400000001      1.4383958400000001      38.836687680000004
   243   1                       0      2.8767916800000002      40.275083520000003
   244   1      2.8767916800000002                       0      40.275083520000003
   245   1      1.4383958400000001      1.4383958400000001      41.713479360000001
   246   1                       0      2.8767916800000002      43.151875200000006
   247   1      2.8767916800000002                       0      43.151875200000006
   248   1      1.4383958400000001      1.4383958400000001      44.590271040000005
   249   1                       0      2.8767916800000002      46.028666880000003
   250   1      2.8767916800000002                       0      46.028666880000003
   251   1      1.4383958400000001      1.4383958400000001      47.467062720000001
   252   1                       0      2.8767916800000002             48.90545856
   253   1      2.8767916800000002                       0             48.90545856
   254   1      1.4383958400000001      1.4383958400000001      50.343854400000005
   255   1                       0      2.8767916800000002      51.782250240000003
   256   1      2.8767916800000002                       0      51.782250240000003
   257   1      1.4383958400000001      1.4383958400000001      53.220646080000002
   258   1                       0      2.8767916800000002      54.659041920000007
   259   1      2.8767916800000002                       0      54.659041920000007
   260   1      1.4383958400000001      1.4383958400000001      56.097437760000005
   261   1                       0      2.8767916800000002      57.535833600000004
   262   1      2.8767916800000002                       0      57.535833600000004
   263   1      1.4383958400000001      1.4383958400000001      58.974229440000002
   264   1                       0      2.8767916800000002             60.41262528
   265   1      2.8767916800000002                       0             60.41262528
   266   1      1.4383958400000001      1.4383958400000001      61.851021120000006
   267   1                       0      2.8767916800000002      63.289416960000004
   268   1      2.8767916800000002                       0      63.289416960000004
   269   1      1.4383958400000001      1.4383958400000001      64.727812800000009
   270   1                       0      2.8767916800000002      66.166208640000008
   271   1      2.8767916800000002                       0      66.166208640000008
   272   1      1.4383958400000001      1.4383958400000001      67.604604480000006
   273   1                       0      2.8767916800000002      69.043000320000004
   274   1      2.8767916800000002                       0      69.043000320000004
   275   1      1.4383958400000001      1.4383958400000001      70.481396160000003
   276   1                       0      2.8767916800000002      71.919792000000001
   277   1      2.8767916800000002                       0      71.919792000000001
   278   1      1.4383958400000001      1.4383958400000001      73.358187839999999
   279   1                       0      2.8767916800000002      74.796583679999998
   280   1      2.8767916800000002                       0      74.796583679999998
   281   1      1.4383958400000001      1.4383958400000001       76.23497952000001
   282   1                       0      2.8767916800000002      77.673375360000009
   283   1      2.8767916800000002                       0      77.673375360000009
   284   1      1.4383958400000001      1.4383958400000001      79.111771200000007
   285   1                       0      2.8767916800000002      80.550167040000005
   286   1      2.8767916800000002                       0      80.550167040000005
   287   1      1.4383958400000001      1.4383958400000001      81.988562880000003
   288   1                       0      2.8767916800000002      83.426958720000002
   289   1      2.8767916800000002                       0      83.426958720000002
   290   1      1.4383958400000001      1.4383958400000001             84.86535456
   291   1                       0      2.8767916800000002      86.303750400000013
   292   1      2.8767916800000002                       0      86.303750400000013
   293   1      1.4383958400000001      1.4383958400000001      87.742146240000011
   294   1                       0      2.8767916800000002      89.180542080000009
   295   1      2.8767916800000002                       0      89.180542080000009
   296   1      1.4383958400000001      1.4383958400000001      90.618937920000008
   297   1                       0      2.8767916800000002      92.057333760000006
   298   1      2.8767916800000002                       0      92.057333760000006
   299   1      1.4383958400000001      1.4383958400000001      93.495729600000004
   300   1                       0      2.8767916800000002      94.934125440000003
   301   1      2.8767916800000002                       0      94.934125440000003
   302   1      1.4383958400000001      1.4383958400000001      96.372521280000001
   303   1                       0      2.8767916800000002      97.810917119999999
   304   1      2.8767916800000002                       0      97.810917119999999
   305   1      1.4383958400000001      1.4383958400000001      99.249312960000012
   306   1                       0      2.8767916800000002      100.68770880000001
   307   1      2.8767916800000002                       0      100.68770880000001
   308   1      1.4383958400000001      1.4383958400000001      102.12610464000001
   309   1                       0      2.8767916800000002      103.56450048000001
   310   1      2.8767916800000002                       0      103.56450048000001
   311   1      1.4383958400000001      1.4383958400000001            105.00289632
   312   1                       0      2.8767916800000002            106.44129216
   313   1      2.8767916800000002                       0            106.44129216
   314   1      1.4383958400000001      1.4383958400000001              107.879688
   315   1                       0      2.8767916800000002      109.31808384000001
   316   1      2.8767916800000002                       0      109.31808384000001
   317   1      1.4383958400000001      1.4383958400000001      110.75647968000001
   318   1                       0      2.8767916800000002      112.19487552000001
   319   1      2.8767916800000002                       0      112.19487552000001
   320   1      1.4383958400000001      1.4383958400000001      113.63327136000001
   321   1                       0      2.8767916800000002      115.07166720000001
   322   1      2.8767916800000002                       0      115.07166720000001
   323   1      1.4383958400000001      1.4383958400000001      116.51006304000001
   324   1                       0      2.8767916800000002            117.94845888
   325   1      2.8767916800000002                       0            117.94845888
   326   1      1.4383958400000001      1.4383958400000001            119.38685472
   327   1                       0      2.8767916800000002            120.82525056
   328   1      2.8767916800000002                       0            120.82525056
   329   1      1.4383958400000001      1.4383958400000001      122.26364640000001
   330   1                       0      2.8767916800000002      123.70204224000001
   331   1      2.8767916800000002                       0      123.70204224000001
   332   1      1.4383958400000001      1.4383958400000001      125.14043808000001
   333   1                       0      2.8767916800000002      126.57883392000001
   334   1      2.8767916800000002                       0      126.57883392000001
   335   1      1.4383958400000001      1.4383958400000001      128.01722976000002
   336   1                       0      2.8767916800000002      129.45562560000002
   337   1      2.8767916800000002                       0      129.45562560000002
   338   1      1.4383958400000001      1.4383958400000001      130.89402144000002
   339   1                       0      2.8767916800000002      132.33241728000002
   340   1      2.8767916800000002                       0      132.33241728000002
   341   1      1.4383958400000001      1.4383958400000001      133.77081312000001
   342   1                       0      2.8767916800000002      135.20920896000001
   343   1      2.8767916800000002                       0      135.20920896000001
   344   1      1.4383958400000001      1.4383958400000001      136.64760480000001
   345   1                       0      2.8767916800000002      138.08600064000001
   346   1      2.8767916800000002                       0      138.08600064000001
   347   1      1.4383958400000001      1.4383958400000001      139.52439648000001
   348   1                       0      2.8767916800000002      140.96279232000001
   349   1      2.8767916800000002                       0      140.96279232000001
   350   1      1.4383958400000001      1.4383958400000001            142.40118816
   351   1                       0      2.8767916800000002              143.839584
   352   1      2.8767916800000002                       0              143.839584
   353   1      1.4383958400000001      1.4383958400000001            145.27797984
   354   1                       0      2.8767916800000002            146.71637568
   355   1      2.8767916800000002                       0            146.71637568
   356   1      1.4383958400000001      1.4383958400000001            148.15477152
   357   1                       0      2.8767916800000002            149.59316736
   358   1      2.8767916800000002                       0            149.59316736
   359   1      1.4383958400000001      1.4383958400000001      151.03156320000002