DATA (written by ASE) 

8 	 atoms 
1  atom types
0.0                    5.46  xlo xhi
0.0                    5.46  ylo yhi
0.0                    5.46  zlo zhi


Atoms 

     1   1                       0                       0                       0
     2   1                   1.365                   1.365                   1.365
     3   1                       0                    2.73                    2.73
     4   1                   1.365      4.0949999999999998      4.0949999999999998
     5   1                    2.73                       0                    2.73
     6   1      4.0949999999999998                   1.365      4.0949999999999998
     7   1                    2.73                    2.73                       0
     8   1      4.0949999999999998      4.0949999999999998                   1.365
