DATA (written by ASE) 

2200 	 atoms 
2  atom types
0.0      25.334382192805887  xlo xhi
0.0      43.880437774329515  ylo yhi
0.0      27.809156781808721  zlo zhi


Atoms 

     1   2      1.3271829099779673      2.2987482596008739      5.5618313420164629
     2   2      2.4125082107461062  4.2251884481905208e-06      3.7078950172114746
     3   1     0.82171660935767676      3.6810255664495193      4.8447980368004808
     4   1     0.24358116212854661      1.8359043834793678      1.1369005315227982
     5   1      2.7770033507717602      2.5521402388729491     0.71703333001352443
     6   1      3.3551531125950436     0.70700626463626137      2.5709790233354339
     7   1      1.4681491975671441      1.1288996755707217         4.4249308551816
     8   2      3.8606259893505737      2.0892955496929355      1.8539363548858978
     9   1      4.0015852117499167      3.2591509462407471      2.9908522908410542
    10   1     0.24356513149115125      6.9401840163059267     0.71703333001353564
    11   1     0.82171489331448055      5.0950500420692126      2.5709790233354006
    12   2      3.8606211292585457      6.6867920370338689      5.5618313420165073
    13   2      4.9459464300266038      4.3880480026213995      3.7078950172114911
    14   2      1.3271877700699541      6.4773393271259483      1.8539363548859868
    15   1      3.3551548286382453      8.0690693438824699      4.8447980368004862
    16   1      1.4681469924692925      7.6471947236736106      2.9908522908409876
    17   1      2.7770193814092012      6.2239481609123199      1.1369005315227538
    18   1      4.0015874168477783      5.5169434530036208      4.4249308551815671
    19   2      6.3940593485391455      2.2987482596008739      5.5618313420164629
    20   2       7.479384649307284  4.2251884481905208e-06      3.7078950172114746
    21   1       5.888593047918854      3.6810255664495193      4.8447980368004808
    22   1      5.3104576006897242      1.8359043834793678      1.1369005315227982
    23   1      7.8438797893329379      2.5521402388729491     0.71703333001352443
    24   1      8.4220295511562213     0.70700626463626137      2.5709790233354339
    25   1      6.5350256361283208      1.1288996755707217         4.4249308551816
    26   2       8.927502427911751      2.0892955496929355      1.8539363548858978
    27   1      9.0684616503110931      3.2591509462407471      2.9908522908410542
    28   1      5.3104415700523289      6.9401840163059267     0.71703333001353564
    29   1      5.8885913318756584      5.0950500420692126      2.5709790233354006
    30   2      8.9274975678197226      6.6867920370338689      5.5618313420165073
    31   2      10.012822868587781      4.3880480026213995      3.7078950172114911
    32   2      6.3940642086311321      6.4773393271259483      1.8539363548859868
    33   1      8.4220312671994222      8.0690693438824699      4.8447980368004862
    34   1      6.5350234310304698      7.6471947236736106      2.9908522908409876
    35   1      7.8438958199703777      6.2239481609123199      1.1369005315227538
    36   1      9.0684638554089556      5.5169434530036208      4.4249308551815671
    37   2      11.460935787100322      2.2987482596008739      5.5618313420164629
    38   2       12.54626108786846  4.2251884481905208e-06      3.7078950172114746
    39   1       10.95546948648003      3.6810255664495193      4.8447980368004808
    40   1      10.377334039250901      1.8359043834793678      1.1369005315227982
    41   1      12.910756227894115      2.5521402388729491     0.71703333001352443
    42   1      13.488905989717399     0.70700626463626137      2.5709790233354339
    43   1        11.6019020746895      1.1288996755707217         4.4249308551816
    44   2      13.994378866472928      2.0892955496929355      1.8539363548858978
    45   1       14.13533808887227      3.2591509462407471      2.9908522908410542
    46   1      10.377318008613507      6.9401840163059267     0.71703333001353564
    47   1      10.955467770436835      5.0950500420692126      2.5709790233354006
    48   2        13.9943740063809      6.6867920370338689      5.5618313420165073
    49   2      15.079699307148958      4.3880480026213995      3.7078950172114911
    50   2      11.460940647192308      6.4773393271259483      1.8539363548859868
    51   1      13.488907705760599      8.0690693438824699      4.8447980368004862
    52   1      11.601899869591646      7.6471947236736106      2.9908522908409876
    53   1      12.910772258531555      6.2239481609123199      1.1369005315227538
    54   1      14.135340293970133      5.5169434530036208      4.4249308551815671
    55   2      16.527812225661499      2.2987482596008739      5.5618313420164629
    56   2      17.613137526429639  4.2251884481905208e-06      3.7078950172114746
    57   1      16.022345925041208      3.6810255664495193      4.8447980368004808
    58   1      15.444210477812078      1.8359043834793678      1.1369005315227982
    59   1      17.977632666455293      2.5521402388729491     0.71703333001352443
    60   1      18.555782428278576     0.70700626463626137      2.5709790233354339
    61   1      16.668778513250675      1.1288996755707217         4.4249308551816
    62   2      19.061255305034106      2.0892955496929355      1.8539363548858978
    63   1      19.202214527433448      3.2591509462407471      2.9908522908410542
    64   1      15.444194447174684      6.9401840163059267     0.71703333001353564
    65   1       16.02234420899801      5.0950500420692126      2.5709790233354006
    66   2      19.061250444942075      6.6867920370338689      5.5618313420165073
    67   2      20.146575745710134      4.3880480026213995      3.7078950172114911
    68   2      16.527817085753487      6.4773393271259483      1.8539363548859868
    69   1      18.555784144321777      8.0690693438824699      4.8447980368004862
    70   1      16.668776308152825      7.6471947236736106      2.9908522908409876
    71   1      17.977648697092732      6.2239481609123199      1.1369005315227538
    72   1      19.202216732531312      5.5169434530036208      4.4249308551815671
    73   2      21.594688664222677      2.2987482596008739      5.5618313420164629
    74   2      22.680013964990813  4.2251884481905208e-06      3.7078950172114746
    75   1      21.089222363602389      3.6810255664495193      4.8447980368004808
    76   1      20.511086916373255      1.8359043834793678      1.1369005315227982
    77   1      23.044509105016466      2.5521402388729491     0.71703333001352443
    78   1      23.622658866839757     0.70700626463626137      2.5709790233354339
    79   1      21.735654951811853      1.1288996755707217         4.4249308551816
    80   2      24.128131743595286      2.0892955496929355      1.8539363548858978
    81   1      24.269090965994629      3.2591509462407471      2.9908522908410542
    82   1      20.511070885735862      6.9401840163059267     0.71703333001353564
    83   1      21.089220647559188      5.0950500420692126      2.5709790233354006
    84   2      24.128126883503256      6.6867920370338689      5.5618313420165073
    85   2      25.213452184271311      4.3880480026213995      3.7078950172114911
    86   2      21.594693524314664      6.4773393271259483      1.8539363548859868
    87   1      23.622660582882954      8.0690693438824699      4.8447980368004862
    88   1      21.735652746714003      7.6471947236736106      2.9908522908409876
    89   1      23.044525135653913      6.2239481609123199      1.1369005315227538
    90   1      24.269093171092489      5.5169434530036208      4.4249308551815671
    91   2      1.3271829099779673      11.074835814466777      5.5618313420164629
    92   2      2.4125082107461062       8.776091780054351      3.7078950172114746
    93   1     0.82171660935767676      12.457113121315423      4.8447980368004808
    94   1     0.24358116212854661       10.61199193834527      1.1369005315227982
    95   1      2.7770033507717602      11.328227793738852     0.71703333001352443
    96   1      3.3551531125950436      9.4830938195021659      2.5709790233354339
    97   1      1.4681491975671441      9.9049872304366247         4.4249308551816
    98   2      3.8606259893505737      10.865383104558838      1.8539363548858978
    99   1      4.0015852117499167      12.035238501106649      2.9908522908410542
   100   1     0.24356513149115125      15.716271571171829     0.71703333001353564
   101   1     0.82171489331448055      13.871137596935117      2.5709790233354006
   102   2      3.8606211292585457      15.462879591899773      5.5618313420165073
   103   2      4.9459464300266038      13.164135557487302      3.7078950172114911
   104   2      1.3271877700699541      15.253426881991851      1.8539363548859868
   105   1      3.3551548286382453      16.845156898748375      4.8447980368004862
   106   1      1.4681469924692925      16.423282278539514      2.9908522908409876
   107   1      2.7770193814092012      15.000035715778223      1.1369005315227538
   108   1      4.0015874168477783      14.293031007869523      4.4249308551815671
   109   2      6.3940593485391455      11.074835814466777      5.5618313420164629
   110   2       7.479384649307284       8.776091780054351      3.7078950172114746
   111   1       5.888593047918854      12.457113121315423      4.8447980368004808
   112   1      5.3104576006897242       10.61199193834527      1.1369005315227982
   113   1      7.8438797893329379      11.328227793738852     0.71703333001352443
   114   1      8.4220295511562213      9.4830938195021659      2.5709790233354339
   115   1      6.5350256361283208      9.9049872304366247         4.4249308551816
   116   2       8.927502427911751      10.865383104558838      1.8539363548858978
   117   1      9.0684616503110931      12.035238501106649      2.9908522908410542
   118   1      5.3104415700523289      15.716271571171829     0.71703333001353564
   119   1      5.8885913318756584      13.871137596935117      2.5709790233354006
   120   2      8.9274975678197226      15.462879591899773      5.5618313420165073
   121   2      10.012822868587781      13.164135557487302      3.7078950172114911
   122   2      6.3940642086311321      15.253426881991851      1.8539363548859868
   123   1      8.4220312671994222      16.845156898748375      4.8447980368004862
   124   1      6.5350234310304698      16.423282278539514      2.9908522908409876
   125   1      7.8438958199703777      15.000035715778223      1.1369005315227538
   126   1      9.0684638554089556      14.293031007869523      4.4249308551815671
   127   2      11.460935787100322      11.074835814466777      5.5618313420164629
   128   2       12.54626108786846       8.776091780054351      3.7078950172114746
   129   1       10.95546948648003      12.457113121315423      4.8447980368004808
   130   1      10.377334039250901       10.61199193834527      1.1369005315227982
   131   1      12.910756227894115      11.328227793738852     0.71703333001352443
   132   1      13.488905989717399      9.4830938195021659      2.5709790233354339
   133   1        11.6019020746895      9.9049872304366247         4.4249308551816
   134   2      13.994378866472928      10.865383104558838      1.8539363548858978
   135   1       14.13533808887227      12.035238501106649      2.9908522908410542
   136   1      10.377318008613507      15.716271571171829     0.71703333001353564
   137   1      10.955467770436835      13.871137596935117      2.5709790233354006
   138   2        13.9943740063809      15.462879591899773      5.5618313420165073
   139   2      15.079699307148958      13.164135557487302      3.7078950172114911
   140   2      11.460940647192308      15.253426881991851      1.8539363548859868
   141   1      13.488907705760599      16.845156898748375      4.8447980368004862
   142   1      11.601899869591646      16.423282278539514      2.9908522908409876
   143   1      12.910772258531555      15.000035715778223      1.1369005315227538
   144   1      14.135340293970133      14.293031007869523      4.4249308551815671
   145   2      16.527812225661499      11.074835814466777      5.5618313420164629
   146   2      17.613137526429639       8.776091780054351      3.7078950172114746
   147   1      16.022345925041208      12.457113121315423      4.8447980368004808
   148   1      15.444210477812078       10.61199193834527      1.1369005315227982
   149   1      17.977632666455293      11.328227793738852     0.71703333001352443
   150   1      18.555782428278576      9.4830938195021659      2.5709790233354339
   151   1      16.668778513250675      9.9049872304366247         4.4249308551816
   152   2      19.061255305034106      10.865383104558838      1.8539363548858978
   153   1      19.202214527433448      12.035238501106649      2.9908522908410542
   154   1      15.444194447174684      15.716271571171829     0.71703333001353564
   155   1       16.02234420899801      13.871137596935117      2.5709790233354006
   156   2      19.061250444942075      15.462879591899773      5.5618313420165073
   157   2      20.146575745710134      13.164135557487302      3.7078950172114911
   158   2      16.527817085753487      15.253426881991851      1.8539363548859868
   159   1      18.555784144321777      16.845156898748375      4.8447980368004862
   160   1      16.668776308152825      16.423282278539514      2.9908522908409876
   161   1      17.977648697092732      15.000035715778223      1.1369005315227538
   162   1      19.202216732531312      14.293031007869523      4.4249308551815671
   163   2      21.594688664222677      11.074835814466777      5.5618313420164629
   164   2      22.680013964990813       8.776091780054351      3.7078950172114746
   165   1      21.089222363602389      12.457113121315423      4.8447980368004808
   166   1      20.511086916373255       10.61199193834527      1.1369005315227982
   167   1      23.044509105016466      11.328227793738852     0.71703333001352443
   168   1      23.622658866839757      9.4830938195021659      2.5709790233354339
   169   1      21.735654951811853      9.9049872304366247         4.4249308551816
   170   2      24.128131743595286      10.865383104558838      1.8539363548858978
   171   1      24.269090965994629      12.035238501106649      2.9908522908410542
   172   1      20.511070885735862      15.716271571171829     0.71703333001353564
   173   1      21.089220647559188      13.871137596935117      2.5709790233354006
   174   2      24.128126883503256      15.462879591899773      5.5618313420165073
   175   2      25.213452184271311      13.164135557487302      3.7078950172114911
   176   2      21.594693524314664      15.253426881991851      1.8539363548859868
   177   1      23.622660582882954      16.845156898748375      4.8447980368004862
   178   1      21.735652746714003      16.423282278539514      2.9908522908409876
   179   1      23.044525135653913      15.000035715778223      1.1369005315227538
   180   1      24.269093171092489      14.293031007869523      4.4249308551815671
   181   2      1.3271829099779673       19.85092336933268      5.5618313420164629
   182   2      2.4125082107461062      17.552179334920254      3.7078950172114746
   183   1     0.82171660935767676      21.233200676181326      4.8447980368004808
   184   1     0.24358116212854661      19.388079493211176      1.1369005315227982
   185   1      2.7770033507717602      20.104315348604757     0.71703333001352443
   186   1      3.3551531125950436      18.259181374368069      2.5709790233354339
   187   1      1.4681491975671441      18.681074785302528         4.4249308551816
   188   2      3.8606259893505737      19.641470659424744      1.8539363548858978
   189   1      4.0015852117499167       20.81132605597255      2.9908522908410542
   190   1     0.24356513149115125       24.49235912603773     0.71703333001353564
   191   1     0.82171489331448055       22.64722515180102      2.5709790233354006
   192   2      3.8606211292585457      24.238967146765674      5.5618313420165073
   193   2      4.9459464300266038      21.940223112353205      3.7078950172114911
   194   2      1.3271877700699541      24.029514436857756      1.8539363548859868
   195   1      3.3551548286382453      25.621244453614278      4.8447980368004862
   196   1      1.4681469924692925      25.199369833405417      2.9908522908409876
   197   1      2.7770193814092012      23.776123270644128      1.1369005315227538
   198   1      4.0015874168477783      23.069118562735429      4.4249308551815671
   199   2      6.3940593485391455       19.85092336933268      5.5618313420164629
   200   2       7.479384649307284      17.552179334920254      3.7078950172114746
   201   1       5.888593047918854      21.233200676181326      4.8447980368004808
   202   1      5.3104576006897242      19.388079493211176      1.1369005315227982
   203   1      7.8438797893329379      20.104315348604757     0.71703333001352443
   204   1      8.4220295511562213      18.259181374368069      2.5709790233354339
   205   1      6.5350256361283208      18.681074785302528         4.4249308551816
   206   2       8.927502427911751      19.641470659424744      1.8539363548858978
   207   1      9.0684616503110931       20.81132605597255      2.9908522908410542
   208   1      5.3104415700523289       24.49235912603773     0.71703333001353564
   209   1      5.8885913318756584       22.64722515180102      2.5709790233354006
   210   2      8.9274975678197226      24.238967146765674      5.5618313420165073
   211   2      10.012822868587781      21.940223112353205      3.7078950172114911
   212   2      6.3940642086311321      24.029514436857756      1.8539363548859868
   213   1      8.4220312671994222      25.621244453614278      4.8447980368004862
   214   1      6.5350234310304698      25.199369833405417      2.9908522908409876
   215   1      7.8438958199703777      23.776123270644128      1.1369005315227538
   216   1      9.0684638554089556      23.069118562735429      4.4249308551815671
   217   2      11.460935787100322       19.85092336933268      5.5618313420164629
   218   2       12.54626108786846      17.552179334920254      3.7078950172114746
   219   1       10.95546948648003      21.233200676181326      4.8447980368004808
   220   1      10.377334039250901      19.388079493211176      1.1369005315227982
   221   1      12.910756227894115      20.104315348604757     0.71703333001352443
   222   1      13.488905989717399      18.259181374368069      2.5709790233354339
   223   1        11.6019020746895      18.681074785302528         4.4249308551816
   224   2      13.994378866472928      19.641470659424744      1.8539363548858978
   225   1       14.13533808887227       20.81132605597255      2.9908522908410542
   226   1      10.377318008613507       24.49235912603773     0.71703333001353564
   227   1      10.955467770436835       22.64722515180102      2.5709790233354006
   228   2        13.9943740063809      24.238967146765674      5.5618313420165073
   229   2      15.079699307148958      21.940223112353205      3.7078950172114911
   230   2      11.460940647192308      24.029514436857756      1.8539363548859868
   231   1      13.488907705760599      25.621244453614278      4.8447980368004862
   232   1      11.601899869591646      25.199369833405417      2.9908522908409876
   233   1      12.910772258531555      23.776123270644128      1.1369005315227538
   234   1      14.135340293970133      23.069118562735429      4.4249308551815671
   235   2      16.527812225661499       19.85092336933268      5.5618313420164629
   236   2      17.613137526429639      17.552179334920254      3.7078950172114746
   237   1      16.022345925041208      21.233200676181326      4.8447980368004808
   238   1      15.444210477812078      19.388079493211176      1.1369005315227982
   239   1      17.977632666455293      20.104315348604757     0.71703333001352443
   240   1      18.555782428278576      18.259181374368069      2.5709790233354339
   241   1      16.668778513250675      18.681074785302528         4.4249308551816
   242   2      19.061255305034106      19.641470659424744      1.8539363548858978
   243   1      19.202214527433448       20.81132605597255      2.9908522908410542
   244   1      15.444194447174684       24.49235912603773     0.71703333001353564
   245   1       16.02234420899801       22.64722515180102      2.5709790233354006
   246   2      19.061250444942075      24.238967146765674      5.5618313420165073
   247   2      20.146575745710134      21.940223112353205      3.7078950172114911
   248   2      16.527817085753487      24.029514436857756      1.8539363548859868
   249   1      18.555784144321777      25.621244453614278      4.8447980368004862
   250   1      16.668776308152825      25.199369833405417      2.9908522908409876
   251   1      17.977648697092732      23.776123270644128      1.1369005315227538
   252   1      19.202216732531312      23.069118562735429      4.4249308551815671
   253   2      21.594688664222677       19.85092336933268      5.5618313420164629
   254   2      22.680013964990813      17.552179334920254      3.7078950172114746
   255   1      21.089222363602389      21.233200676181326      4.8447980368004808
   256   1      20.511086916373255      19.388079493211176      1.1369005315227982
   257   1      23.044509105016466      20.104315348604757     0.71703333001352443
   258   1      23.622658866839757      18.259181374368069      2.5709790233354339
   259   1      21.735654951811853      18.681074785302528         4.4249308551816
   260   2      24.128131743595286      19.641470659424744      1.8539363548858978
   261   1      24.269090965994629       20.81132605597255      2.9908522908410542
   262   1      20.511070885735862       24.49235912603773     0.71703333001353564
   263   1      21.089220647559188       22.64722515180102      2.5709790233354006
   264   2      24.128126883503256      24.238967146765674      5.5618313420165073
   265   2      25.213452184271311      21.940223112353205      3.7078950172114911
   266   2      21.594693524314664      24.029514436857756      1.8539363548859868
   267   1      23.622660582882954      25.621244453614278      4.8447980368004862
   268   1      21.735652746714003      25.199369833405417      2.9908522908409876
   269   1      23.044525135653913      23.776123270644128      1.1369005315227538
   270   1      24.269093171092489      23.069118562735429      4.4249308551815671
   271   2      1.3271829099779673      28.627010924198583      5.5618313420164629
   272   2      2.4125082107461062      26.328266889786157      3.7078950172114746
   273   1     0.82171660935767676      30.009288231047229      4.8447980368004808
   274   1     0.24358116212854661      28.164167048077079      1.1369005315227982
   275   1      2.7770033507717602       28.88040290347066     0.71703333001352443
   276   1      3.3551531125950436      27.035268929233972      2.5709790233354339
   277   1      1.4681491975671441      27.457162340168431         4.4249308551816
   278   2      3.8606259893505737      28.417558214290647      1.8539363548858978
   279   1      4.0015852117499167      29.587413610838453      2.9908522908410542
   280   1     0.24356513149115125      33.268446680903637     0.71703333001353564
   281   1     0.82171489331448055      31.423312706666923      2.5709790233354006
   282   2      3.8606211292585457      33.015054701631577      5.5618313420165073
   283   2      4.9459464300266038      30.716310667219108      3.7078950172114911
   284   2      1.3271877700699541      32.805601991723663      1.8539363548859868
   285   1      3.3551548286382453      34.397332008480177      4.8447980368004862
   286   1      1.4681469924692925      33.975457388271323      2.9908522908409876
   287   1      2.7770193814092012      32.552210825510031      1.1369005315227538
   288   1      4.0015874168477783      31.845206117601332      4.4249308551815671
   289   2      6.3940593485391455      28.627010924198583      5.5618313420164629
   290   2       7.479384649307284      26.328266889786157      3.7078950172114746
   291   1       5.888593047918854      30.009288231047229      4.8447980368004808
   292   1      5.3104576006897242      28.164167048077079      1.1369005315227982
   293   1      7.8438797893329379       28.88040290347066     0.71703333001352443
   294   1      8.4220295511562213      27.035268929233972      2.5709790233354339
   295   1      6.5350256361283208      27.457162340168431         4.4249308551816
   296   2       8.927502427911751      28.417558214290647      1.8539363548858978
   297   1      9.0684616503110931      29.587413610838453      2.9908522908410542
   298   1      5.3104415700523289      33.268446680903637     0.71703333001353564
   299   1      5.8885913318756584      31.423312706666923      2.5709790233354006
   300   2      8.9274975678197226      33.015054701631577      5.5618313420165073
   301   2      10.012822868587781      30.716310667219108      3.7078950172114911
   302   2      6.3940642086311321      32.805601991723663      1.8539363548859868
   303   1      8.4220312671994222      34.397332008480177      4.8447980368004862
   304   1      6.5350234310304698      33.975457388271323      2.9908522908409876
   305   1      7.8438958199703777      32.552210825510031      1.1369005315227538
   306   1      9.0684638554089556      31.845206117601332      4.4249308551815671
   307   2      11.460935787100322      28.627010924198583      5.5618313420164629
   308   2       12.54626108786846      26.328266889786157      3.7078950172114746
   309   1       10.95546948648003      30.009288231047229      4.8447980368004808
   310   1      10.377334039250901      28.164167048077079      1.1369005315227982
   311   1      12.910756227894115       28.88040290347066     0.71703333001352443
   312   1      13.488905989717399      27.035268929233972      2.5709790233354339
   313   1        11.6019020746895      27.457162340168431         4.4249308551816
   314   2      13.994378866472928      28.417558214290647      1.8539363548858978
   315   1       14.13533808887227      29.587413610838453      2.9908522908410542
   316   1      10.377318008613507      33.268446680903637     0.71703333001353564
   317   1      10.955467770436835      31.423312706666923      2.5709790233354006
   318   2        13.9943740063809      33.015054701631577      5.5618313420165073
   319   2      15.079699307148958      30.716310667219108      3.7078950172114911
   320   2      11.460940647192308      32.805601991723663      1.8539363548859868
   321   1      13.488907705760599      34.397332008480177      4.8447980368004862
   322   1      11.601899869591646      33.975457388271323      2.9908522908409876
   323   1      12.910772258531555      32.552210825510031      1.1369005315227538
   324   1      14.135340293970133      31.845206117601332      4.4249308551815671
   325   2      16.527812225661499      28.627010924198583      5.5618313420164629
   326   2      17.613137526429639      26.328266889786157      3.7078950172114746
   327   1      16.022345925041208      30.009288231047229      4.8447980368004808
   328   1      15.444210477812078      28.164167048077079      1.1369005315227982
   329   1      17.977632666455293       28.88040290347066     0.71703333001352443
   330   1      18.555782428278576      27.035268929233972      2.5709790233354339
   331   1      16.668778513250675      27.457162340168431         4.4249308551816
   332   2      19.061255305034106      28.417558214290647      1.8539363548858978
   333   1      19.202214527433448      29.587413610838453      2.9908522908410542
   334   1      15.444194447174684      33.268446680903637     0.71703333001353564
   335   1       16.02234420899801      31.423312706666923      2.5709790233354006
   336   2      19.061250444942075      33.015054701631577      5.5618313420165073
   337   2      20.146575745710134      30.716310667219108      3.7078950172114911
   338   2      16.527817085753487      32.805601991723663      1.8539363548859868
   339   1      18.555784144321777      34.397332008480177      4.8447980368004862
   340   1      16.668776308152825      33.975457388271323      2.9908522908409876
   341   1      17.977648697092732      32.552210825510031      1.1369005315227538
   342   1      19.202216732531312      31.845206117601332      4.4249308551815671
   343   2      21.594688664222677      28.627010924198583      5.5618313420164629
   344   2      22.680013964990813      26.328266889786157      3.7078950172114746
   345   1      21.089222363602389      30.009288231047229      4.8447980368004808
   346   1      20.511086916373255      28.164167048077079      1.1369005315227982
   347   1      23.044509105016466       28.88040290347066     0.71703333001352443
   348   1      23.622658866839757      27.035268929233972      2.5709790233354339
   349   1      21.735654951811853      27.457162340168431         4.4249308551816
   350   2      24.128131743595286      28.417558214290647      1.8539363548858978
   351   1      24.269090965994629      29.587413610838453      2.9908522908410542
   352   1      20.511070885735862      33.268446680903637     0.71703333001353564
   353   1      21.089220647559188      31.423312706666923      2.5709790233354006
   354   2      24.128126883503256      33.015054701631577      5.5618313420165073
   355   2      25.213452184271311      30.716310667219108      3.7078950172114911
   356   2      21.594693524314664      32.805601991723663      1.8539363548859868
   357   1      23.622660582882954      34.397332008480177      4.8447980368004862
   358   1      21.735652746714003      33.975457388271323      2.9908522908409876
   359   1      23.044525135653913      32.552210825510031      1.1369005315227538