DATA (written by ASE) 

1152 	 atoms 
2  atom types
0.0      20.267505754244709  xlo xhi
0.0      35.104350219463612  ylo yhi
0.0      22.247325425446977  zlo zhi


Atoms 

     1   2      1.3242534916001565       2.293674362901978                       0
     2   2      2.4183694553608643                       0       3.707889424851615
     3   1     0.83772188221663502      3.6827096206483789      4.8425030215494109
     4   1     0.23702087948123407      1.8212005252544399      1.1346135966977957
     5   1      2.7704590987618229      2.5668432521785118     0.71932833481233349
     6   1      3.3711601014972241     0.70533415678457256      2.5732702663224627
     7   1      1.4586954575827193      1.1158663684698673      4.4272177596639484
     8   2       6.391129930161334       2.293674362901978                       0
     9   2      7.4852458939220412                       0       3.707889424851615
    10   2      3.8576917108807454      2.0943694145309735      1.8539419315101293
    11   1      5.9045983207778132      3.6827096206483789      4.8425030215494109
    12   1      3.9921336768633084      3.2721774089630844      2.9885610900392816
    13   1      5.3038973180424112      1.8212005252544399      1.1346135966977957
    14   1      7.8373355373229998      2.5668432521785118     0.71932833481233349
    15   1      8.4380365400584019     0.70533415678457256      2.5732702663224627
    16   1      6.5255718961438962      1.1158663684698673      4.4272177596639484
    17   2      11.458006368722511       2.293674362901978                       0
    18   2      12.552122332483219                       0       3.707889424851615
    19   2      8.9245681494419227      2.0943694145309735      1.8539419315101293
    20   1      10.971474759338991      3.6827096206483789      4.8425030215494109
    21   1      9.0590101154244849      3.2721774089630844      2.9885610900392816
    22   1       10.37077375660359      1.8212005252544399      1.1346135966977957
    23   1      12.904211975884177      2.5668432521785118     0.71932833481233349
    24   1      13.504912978619577     0.70533415678457256      2.5732702663224627
    25   1      11.592448334705074      1.1158663684698673      4.4272177596639484
    26   2      16.524882807283689       2.293674362901978                       0
    27   2      17.618998771044396                       0       3.707889424851615
    28   2        13.9914445880031      2.0943694145309735      1.8539419315101293
    29   1       16.03835119790017      3.6827096206483789      4.8425030215494109
    30   1      14.125886553985662      3.2721774089630844      2.9885610900392816
    31   1      15.437650195164766      1.8212005252544399      1.1346135966977957
    32   1      17.971088414445354      2.5668432521785118     0.71932833481233349
    33   1      18.571789417180756     0.70533415678457256      2.5732702663224627
    34   1      16.659324773266249      1.1158663684698673      4.4272177596639484
    35   2      19.058321026564276      2.0943694145309735      1.8539419315101293
    36   1      19.192762992546839      3.2721774089630844      2.9885610900392816
    37   1     0.23702087948123385      6.9548870296114638     0.71932833481233349
    38   1     0.83772188221663502      5.0933779342175249      2.5732702663224627
    39   2      3.8576917108807454      6.6817181403349295                       0
    40   2      4.9518076746414526      4.3880437774329515       3.707889424851615
    41   2      1.3242534916001567       6.482413191963925      1.8539419315101293
    42   1      3.3711601014972246      8.0707533980813295      4.8425030215494109
    43   1      1.4586954575827198      7.6602211863960354      2.9885610900392816
    44   1      2.7704590987618234      6.2092443026873907      1.1346135966977957
    45   1      5.3038973180424112      6.9548870296114638     0.71932833481233349
    46   1      5.9045983207778132      5.0933779342175249      2.5732702663224627
    47   1      3.9921336768633071       5.503910145902819      4.4272177596639484
    48   2      8.9245681494419227      6.6817181403349295                       0
    49   2       10.01868411320263      4.3880437774329515       3.707889424851615
    50   2       6.391129930161334       6.482413191963925      1.8539419315101293
    51   1      8.4380365400584019      8.0707533980813295      4.8425030215494109
    52   1      6.5255718961438962      7.6602211863960354      2.9885610900392816
    53   1      7.8373355373230016      6.2092443026873907      1.1346135966977957
    54   1      10.370773756603588      6.9548870296114638     0.71932833481233349
    55   1      10.971474759338989      5.0933779342175249      2.5732702663224627
    56   1      9.0590101154244849       5.503910145902819      4.4272177596639484
    57   2        13.9914445880031      6.6817181403349295                       0
    58   2      15.085560551763807      4.3880437774329515       3.707889424851615
    59   2      11.458006368722511       6.482413191963925      1.8539419315101293
    60   1      13.504912978619579      8.0707533980813295      4.8425030215494109
    61   1      11.592448334705074      7.6602211863960354      2.9885610900392816
    62   1      12.904211975884177      6.2092443026873907      1.1346135966977957
    63   1      15.437650195164766      6.9548870296114638     0.71932833481233349
    64   1      16.038351197900166      5.0933779342175249      2.5732702663224627
    65   1      14.125886553985662       5.503910145902819      4.4272177596639484
    66   2      19.058321026564279      6.6817181403349295                       0
    67   2      20.152436990324986      4.3880437774329515       3.707889424851615
    68   2      16.524882807283689       6.482413191963925      1.8539419315101293
    69   1      18.571789417180756      8.0707533980813295      4.8425030215494109
    70   1      16.659324773266249      7.6602211863960354      2.9885610900392816
    71   1      17.971088414445354      6.2092443026873907      1.1346135966977957
    72   1      19.192762992546839       5.503910145902819      4.4272177596639484
    73   2      1.3242534916001567      11.069761917767881                       0
    74   2      2.4183694553608639       8.776087554865903       3.707889424851615
    75   1      0.8377218822166359      12.458797175514281      4.8425030215494109
    76   1     0.23702087948123474      10.597288080120343      1.1346135966977957
    77   1      2.7704590987618225      11.342930807044414     0.71932833481233349
    78   1      3.3711601014972246      9.4814217116504764      2.5732702663224627
    79   1       1.458695457582718      9.8919539233357714      4.4272177596639484
    80   2       6.391129930161334      11.069761917767881                       0
    81   2      7.4852458939220412       8.776087554865903       3.707889424851615
    82   2      3.8576917108807454      10.870456969396876      1.8539419315101293
    83   1      5.9045983207778132      12.458797175514281      4.8425030215494109
    84   1      3.9921336768633084      12.048264963828986      2.9885610900392816
    85   1      5.3038973180424129      10.597288080120343      1.1346135966977957
    86   1      7.8373355373229998      11.342930807044414     0.71932833481233349
    87   1      8.4380365400584001      9.4814217116504764      2.5732702663224627
    88   1      6.5255718961438953      9.8919539233357714      4.4272177596639484
    89   2      11.458006368722511      11.069761917767881                       0
    90   2      12.552122332483219       8.776087554865903       3.707889424851615
    91   2      8.9245681494419227      10.870456969396876      1.8539419315101293
    92   1      10.971474759338991      12.458797175514281      4.8425030215494109
    93   1      9.0590101154244849      12.048264963828986      2.9885610900392816
    94   1      10.370773756603588      10.597288080120343      1.1346135966977957
    95   1      12.904211975884177      11.342930807044414     0.71932833481233349
    96   1      13.504912978619579      9.4814217116504764      2.5732702663224627
    97   1      11.592448334705072      9.8919539233357714      4.4272177596639484
    98   2      16.524882807283689      11.069761917767881                       0
    99   2      17.618998771044396       8.776087554865903       3.707889424851615
   100   2        13.9914445880031      10.870456969396876      1.8539419315101293
   101   1       16.03835119790017      12.458797175514281      4.8425030215494109
   102   1      14.125886553985662      12.048264963828986      2.9885610900392816
   103   1      15.437650195164766      10.597288080120343      1.1346135966977957
   104   1      17.971088414445354      11.342930807044414     0.71932833481233349
   105   1      18.571789417180756      9.4814217116504764      2.5732702663224627
   106   1      16.659324773266249      9.8919539233357714      4.4272177596639484
   107   2      19.058321026564279      10.870456969396876      1.8539419315101293
   108   1      19.192762992546839      12.048264963828986      2.9885610900392816
   109   1     0.23702087948123385      15.730974584477366     0.71932833481233349
   110   1      0.8377218822166359      13.869465489083428      2.5732702663224627
   111   2      3.8576917108807454      15.457805695200832                       0
   112   2      4.9518076746414526      13.164131332298854       3.707889424851615
   113   2      1.3242534916001567      15.258500746829828      1.8539419315101293
   114   1      3.3711601014972246      16.846840952947232      4.8425030215494109
   115   1      1.4586954575827189      16.436308741261939      2.9885610900392816
   116   1      2.7704590987618243      14.985331857553295      1.1346135966977957
   117   1      5.3038973180424112      15.730974584477366     0.71932833481233349
   118   1      5.9045983207778114      13.869465489083428      2.5732702663224627
   119   1      3.9921336768633076      14.279997700768723      4.4272177596639484
   120   2      8.9245681494419227      15.457805695200832                       0
   121   2       10.01868411320263      13.164131332298854       3.707889424851615
   122   2       6.391129930161334      15.258500746829828      1.8539419315101293
   123   1      8.4380365400584019      16.846840952947232      4.8425030215494109
   124   1      6.5255718961438962      16.436308741261939      2.9885610900392816
   125   1      7.8373355373229998      14.985331857553295      1.1346135966977957
   126   1      10.370773756603588      15.730974584477366     0.71932833481233349
   127   1      10.971474759338991      13.869465489083428      2.5732702663224627
   128   1      9.0590101154244849      14.279997700768723      4.4272177596639484
   129   2        13.9914445880031      15.457805695200832                       0
   130   2      15.085560551763807      13.164131332298854       3.707889424851615
   131   2      11.458006368722511      15.258500746829828      1.8539419315101293
   132   1      13.504912978619579      16.846840952947232      4.8425030215494109
   133   1      11.592448334705074      16.436308741261939      2.9885610900392816
   134   1      12.904211975884177      14.985331857553295      1.1346135966977957
   135   1      15.437650195164766      15.730974584477366     0.71932833481233349
   136   1       16.03835119790017      13.869465489083428      2.5732702663224627
   137   1      14.125886553985662      14.279997700768723      4.4272177596639484
   138   2      19.058321026564279      15.457805695200832                       0
   139   2      20.152436990324986      13.164131332298854       3.707889424851615
   140   2      16.524882807283689      15.258500746829828      1.8539419315101293
   141   1      18.571789417180756      16.846840952947232      4.8425030215494109
   142   1      16.659324773266249      16.436308741261939      2.9885610900392816
   143   1      17.971088414445354      14.985331857553295      1.1346135966977957
   144   1      19.192762992546839      14.279997700768723      4.4272177596639484
   145   2      1.3242534916001567      19.845849472633784                       0
   146   2      2.4183694553608639      17.552175109731806       3.707889424851615
   147   1      0.8377218822166359      21.234884730380188      4.8425030215494109
   148   1     0.23702087948123562      19.373375634986246      1.1346135966977957
   149   1      2.7704590987618225      20.119018361910317     0.71932833481233349
   150   1      3.3711601014972228      18.257509266516376      2.5732702663224627
   151   1      1.4586954575827189      18.668041478201673      4.4272177596639484
   152   2       6.391129930161334      19.845849472633784                       0
   153   2      7.4852458939220412      17.552175109731806       3.707889424851615
   154   2      3.8576917108807454      19.646544524262779      1.8539419315101293
   155   1      5.9045983207778132      21.234884730380188      4.8425030215494109
   156   1      3.9921336768633076      20.824352518694891      2.9885610900392816
   157   1      5.3038973180424112      19.373375634986246      1.1346135966977957
   158   1      7.8373355373229998      20.119018361910317     0.71932833481233349
   159   1      8.4380365400584019      18.257509266516376      2.5732702663224627
   160   1      6.5255718961438962      18.668041478201673      4.4272177596639484
   161   2      11.458006368722511      19.845849472633784                       0
   162   2      12.552122332483219      17.552175109731806       3.707889424851615
   163   2      8.9245681494419227      19.646544524262779      1.8539419315101293
   164   1      10.971474759338991      21.234884730380188      4.8425030215494109
   165   1      9.0590101154244849      20.824352518694891      2.9885610900392816
   166   1      10.370773756603588      19.373375634986246      1.1346135966977957
   167   1      12.904211975884177      20.119018361910317     0.71932833481233349
   168   1      13.504912978619579      18.257509266516376      2.5732702663224627
   169   1      11.592448334705074      18.668041478201673      4.4272177596639484
   170   2      16.524882807283689      19.845849472633784                       0
   171   2      17.618998771044396      17.552175109731806       3.707889424851615
   172   2        13.9914445880031      19.646544524262779      1.8539419315101293
   173   1       16.03835119790017      21.234884730380188      4.8425030215494109
   174   1      14.125886553985662      20.824352518694891      2.9885610900392816
   175   1      15.437650195164766      19.373375634986246      1.1346135966977957
   176   1      17.971088414445354      20.119018361910317     0.71932833481233349
   177   1      18.571789417180756      18.257509266516376      2.5732702663224627
   178   1      16.659324773266249      18.668041478201673      4.4272177596639484
   179   2      19.058321026564279      19.646544524262779      1.8539419315101293
   180   1      19.192762992546839      20.824352518694891      2.9885610900392816
   181   1     0.23702087948123385      24.507062139343269     0.71932833481233349
   182   1     0.83772188221663413      22.645553043949327      2.5732702663224627
   183   2      3.8576917108807454      24.233893250066735                       0
   184   2      4.9518076746414526      21.940218887164757       3.707889424851615
   185   2      1.3242534916001567      24.034588301695731      1.8539419315101293
   186   1      3.3711601014972246      25.622928507813139      4.8425030215494109
   187   1      1.4586954575827189      25.212396296127842      2.9885610900392816
   188   1      2.7704590987618225      23.761419412419198      1.1346135966977957
   189   1      5.3038973180424112      24.507062139343269     0.71932833481233349
   190   1      5.9045983207778132      22.645553043949327      2.5732702663224627
   191   1      3.9921336768633076      23.056085255634624      4.4272177596639484
   192   2      8.9245681494419227      24.233893250066735                       0
   193   2       10.01868411320263      21.940218887164757       3.707889424851615
   194   2       6.391129930161334      24.034588301695731      1.8539419315101293
   195   1      8.4380365400584019      25.622928507813139      4.8425030215494109
   196   1      6.5255718961438962      25.212396296127842      2.9885610900392816
   197   1      7.8373355373229998      23.761419412419198      1.1346135966977957
   198   1      10.370773756603588      24.507062139343269     0.71932833481233349
   199   1      10.971474759338991      22.645553043949327      2.5732702663224627
   200   1      9.0590101154244849      23.056085255634624      4.4272177596639484
   201   2        13.9914445880031      24.233893250066735                       0
   202   2      15.085560551763807      21.940218887164757       3.707889424851615
   203   2      11.458006368722511      24.034588301695731      1.8539419315101293
   204   1      13.504912978619579      25.622928507813139      4.8425030215494109
   205   1      11.592448334705074      25.212396296127842      2.9885610900392816
   206   1      12.904211975884177      23.761419412419198      1.1346135966977957
   207   1      15.437650195164766      24.507062139343269     0.71932833481233349
   208   1       16.03835119790017      22.645553043949327      2.5732702663224627
   209   1      14.125886553985662      23.056085255634624      4.4272177596639484
   210   2      19.058321026564279      24.233893250066735                       0
   211   2      20.152436990324986      21.940218887164757       3.707889424851615
   212   2      16.524882807283689      24.034588301695731      1.8539419315101293
   213   1      18.571789417180756      25.622928507813139      4.8425030215494109
   214   1      16.659324773266249      25.212396296127842      2.9885610900392816
   215   1      17.971088414445354      23.761419412419198      1.1346135966977957
   216   1      19.192762992546843      23.056085255634624      4.4272177596639484
   217   2      1.3242534916001567      28.621937027499687                       0
   218   2      2.4183694553608639      26.328262664597709       3.707889424851615
   219   1     0.83772188221663413      30.010972285246091      4.8425030215494109
   220   1     0.23702087948123207      28.149463189852149      1.1346135966977957
   221   1      2.7704590987618225       28.89510591677622     0.71932833481233349
   222   1      3.3711601014972246      27.033596821382279      2.5732702663224627
   223   1      1.4586954575827189      27.444129033067576      4.4272177596639484
   224   2       6.391129930161334      28.621937027499687                       0
   225   2      7.4852458939220412      26.328262664597709       3.707889424851615
   226   2      3.8576917108807436      28.422632079128682      1.8539419315101293
   227   1      5.9045983207778114      30.010972285246091      4.8425030215494109
   228   1      3.9921336768633076      29.600440073560794      2.9885610900392816
   229   1      5.3038973180424094      28.149463189852149      1.1346135966977957
   230   1      7.8373355373229998       28.89510591677622     0.71932833481233349
   231   1      8.4380365400584019      27.033596821382279      2.5732702663224627
   232   1      6.5255718961438962      27.444129033067576      4.4272177596639484
   233   2      11.458006368722511      28.621937027499687                       0
   234   2      12.552122332483219      26.328262664597709       3.707889424851615
   235   2      8.9245681494419209      28.422632079128682      1.8539419315101293
   236   1      10.971474759338989      30.010972285246091      4.8425030215494109
   237   1      9.0590101154244849      29.600440073560794      2.9885610900392816
   238   1      10.370773756603587      28.149463189852149      1.1346135966977957
   239   1      12.904211975884177       28.89510591677622     0.71932833481233349
   240   1      13.504912978619579      27.033596821382279      2.5732702663224627
   241   1      11.592448334705074      27.444129033067576      4.4272177596639484
   242   2      16.524882807283689      28.621937027499687                       0
   243   2      17.618998771044399      26.328262664597709       3.707889424851615
   244   2      13.991444588003098      28.422632079128682      1.8539419315101293
   245   1      16.038351197900166      30.010972285246091      4.8425030215494109
   246   1      14.125886553985662      29.600440073560794      2.9885610900392816
   247   1      15.437650195164764      28.149463189852149      1.1346135966977957
   248   1      17.971088414445358       28.89510591677622     0.71932833481233349
   249   1      18.571789417180756      27.033596821382279      2.5732702663224627
   250   1      16.659324773266256      27.444129033067576      4.4272177596639484
   251   2      19.058321026564272      28.422632079128682      1.8539419315101293
   252   1      19.192762992546836      29.600440073560794      2.9885610900392816
   253   1     0.23702087948123562      33.283149694209172     0.71932833481233349
   254   1     0.83772188221663768       31.42164059881523      2.5732702663224627
   255   2      3.8576917108807471      33.009980804932638                       0
   256   2      4.9518076746414543       30.71630644203066       3.707889424851615
   257   2      1.3242534916001567       32.81067585656163      1.8539419315101293
   258   1      3.3711601014972246      34.399016062679038      4.8425030215494109
   259   1      1.4586954575827207      33.988483850993745      2.9885610900392816
   260   1      2.7704590987618225      32.537506967285097      1.1346135966977957
   261   1      5.3038973180424129      33.283149694209172     0.71932833481233349
   262   1       5.904598320777815       31.42164059881523      2.5732702663224627
   263   1      3.9921336768633076      31.832172810500527      4.4272177596639484
   264   2      8.9245681494419244      33.009980804932638                       0
   265   2      10.018684113202632       30.71630644203066       3.707889424851615
   266   2       6.391129930161334       32.81067585656163      1.8539419315101293
   267   1      8.4380365400584019      34.399016062679038      4.8425030215494109
   268   1       6.525571896143898      33.988483850993745      2.9885610900392816
   269   1      7.8373355373229998      32.537506967285097      1.1346135966977957
   270   1       10.37077375660359      33.283149694209172     0.71932833481233349
   271   1      10.971474759338992       31.42164059881523      2.5732702663224627
   272   1      9.0590101154244849      31.832172810500527      4.4272177596639484
   273   2      13.991444588003102      33.009980804932638                       0
   274   2      15.085560551763812       30.71630644203066       3.707889424851615
   275   2      11.458006368722511       32.81067585656163      1.8539419315101293
   276   1      13.504912978619579      34.399016062679038      4.8425030215494109
   277   1      11.592448334705075      33.988483850993745      2.9885610900392816
   278   1      12.904211975884177      32.537506967285097      1.1346135966977957
   279   1      15.437650195164771      33.283149694209172     0.71932833481233349
   280   1       16.03835119790017       31.42164059881523      2.5732702663224627
   281   1      14.125886553985666      31.832172810500527      4.4272177596639484
   282   2      19.058321026564276      33.009980804932638                       0
   283   2      20.152436990324986       30.71630644203066       3.707889424851615
   284   2      16.524882807283685       32.81067585656163      1.8539419315101293
   285   1      18.571789417180753      34.399016062679038      4.8425030215494109
   286   1      16.659324773266249      33.988483850993745      2.9885610900392816
   287   1      17.971088414445354      32.537506967285097      1.1346135966977957
   288   1      19.192762992546839      31.832172810500527      4.4272177596639484
   289   2      1.3242534916001565       2.293674362901978      5.5618313563617443
   290   2      2.4183694553608643                       0      9.2697207812133584
   291   1     0.83772188221663502      3.6827096206483789      10.404334377911155
   292   1     0.23702087948123407      1.8212005252544399      6.6964449530595402
   293   1      2.7704590987618229      2.5668432521785118      6.2811596911740777
   294   1      3.3711601014972241     0.70533415678457256       8.135101622684207
   295   1      1.4586954575827193      1.1158663684698673      9.9890491160256936
   296   2       6.391129930161334       2.293674362901978      5.5618313563617443
   297   2      7.4852458939220412                       0      9.2697207812133584
   298   2      3.8576917108807454      2.0943694145309735      7.4157732878718745
   299   1      5.9045983207778132      3.6827096206483789      10.404334377911155
   300   1      3.9921336768633084      3.2721774089630844       8.550392446401025
   301   1      5.3038973180424112      1.8212005252544399      6.6964449530595402
   302   1      7.8373355373229998      2.5668432521785118      6.2811596911740777
   303   1      8.4380365400584019     0.70533415678457256       8.135101622684207
   304   1      6.5255718961438962      1.1158663684698673      9.9890491160256936
   305   2      11.458006368722511       2.293674362901978      5.5618313563617443
   306   2      12.552122332483219                       0      9.2697207812133584
   307   2      8.9245681494419227      2.0943694145309735      7.4157732878718745
   308   1      10.971474759338991      3.6827096206483789      10.404334377911155
   309   1      9.0590101154244849      3.2721774089630844       8.550392446401025
   310   1       10.37077375660359      1.8212005252544399      6.6964449530595402
   311   1      12.904211975884177      2.5668432521785118      6.2811596911740777
   312   1      13.504912978619577     0.70533415678457256       8.135101622684207
   313   1      11.592448334705074      1.1158663684698673      9.9890491160256936
   314   2      16.524882807283689       2.293674362901978      5.5618313563617443
   315   2      17.618998771044396                       0      9.2697207812133584
   316   2        13.9914445880031      2.0943694145309735      7.4157732878718745
   317   1       16.03835119790017      3.6827096206483789      10.404334377911155
   318   1      14.125886553985662      3.2721774089630844       8.550392446401025
   319   1      15.437650195164766      1.8212005252544399      6.6964449530595402
   320   1      17.971088414445354      2.5668432521785118      6.2811596911740777
   321   1      18.571789417180756     0.70533415678457256       8.135101622684207
   322   1      16.659324773266249      1.1158663684698673      9.9890491160256936
   323   2      19.058321026564276      2.0943694145309735      7.4157732878718745
   324   1      19.192762992546839      3.2721774089630844       8.550392446401025
   325   1     0.23702087948123385      6.9548870296114638      6.2811596911740777
   326   1     0.83772188221663502      5.0933779342175249       8.135101622684207
   327   2      3.8576917108807454      6.6817181403349295      5.5618313563617443
   328   2      4.9518076746414526      4.3880437774329515      9.2697207812133584
   329   2      1.3242534916001567       6.482413191963925      7.4157732878718745
   330   1      3.3711601014972246      8.0707533980813295      10.404334377911155
   331   1      1.4586954575827198      7.6602211863960354       8.550392446401025
   332   1      2.7704590987618234      6.2092443026873907      6.6964449530595402
   333   1      5.3038973180424112      6.9548870296114638      6.2811596911740777
   334   1      5.9045983207778132      5.0933779342175249       8.135101622684207
   335   1      3.9921336768633071       5.503910145902819      9.9890491160256936
   336   2      8.9245681494419227      6.6817181403349295      5.5618313563617443
   337   2       10.01868411320263      4.3880437774329515      9.2697207812133584
   338   2       6.391129930161334       6.482413191963925      7.4157732878718745
   339   1      8.4380365400584019      8.0707533980813295      10.404334377911155
   340   1      6.5255718961438962      7.6602211863960354       8.550392446401025
   341   1      7.8373355373230016      6.2092443026873907      6.6964449530595402
   342   1      10.370773756603588      6.9548870296114638      6.2811596911740777
   343   1      10.971474759338989      5.0933779342175249       8.135101622684207
   344   1      9.0590101154244849       5.503910145902819      9.9890491160256936
   345   2        13.9914445880031      6.6817181403349295      5.5618313563617443
   346   2      15.085560551763807      4.3880437774329515      9.2697207812133584
   347   2      11.458006368722511       6.482413191963925      7.4157732878718745
   348   1      13.504912978619579      8.0707533980813295      10.404334377911155
   349   1      11.592448334705074      7.6602211863960354       8.550392446401025
   350   1      12.904211975884177      6.2092443026873907      6.6964449530595402
   351   1      15.437650195164766      6.9548870296114638      6.2811596911740777
   352   1      16.038351197900166      5.0933779342175249       8.135101622684207
   353   1      14.125886553985662       5.503910145902819      9.9890491160256936
   354   2      19.058321026564279      6.6817181403349295      5.5618313563617443
   355   2      20.152436990324986      4.3880437774329515      9.2697207812133584
   356   2      16.524882807283689       6.482413191963925      7.4157732878718745
   357   1      18.571789417180756      8.0707533980813295      10.404334377911155
   358   1      16.659324773266249      7.6602211863960354       8.550392446401025
   359   1      17.971088414445354      6.2092443026873907      6.6964449530595402